 Entering Gaussian System, Link 0=g09
 Input=AF19-helio.com
 Output=AF19-helio.log
 Initial command:
 /home/scr/programs/g09/l1.exe "/home/scr/helius/Gau-12612.inp" -scrdir="/home/scr/helius/"
 Entering Link 1 = /home/scr/programs/g09/l1.exe PID=     12614.
  
 Copyright (c) 1988,1990,1992,1993,1995,1998,2003,2009,2013,
            Gaussian, Inc.  All Rights Reserved.
  
 This is part of the Gaussian(R) 09 program.  It is based on
 the Gaussian(R) 03 system (copyright 2003, Gaussian, Inc.),
 the Gaussian(R) 98 system (copyright 1998, Gaussian, Inc.),
 the Gaussian(R) 94 system (copyright 1995, Gaussian, Inc.),
 the Gaussian 92(TM) system (copyright 1992, Gaussian, Inc.),
 the Gaussian 90(TM) system (copyright 1990, Gaussian, Inc.),
 the Gaussian 88(TM) system (copyright 1988, Gaussian, Inc.),
 the Gaussian 86(TM) system (copyright 1986, Carnegie Mellon
 University), and the Gaussian 82(TM) system (copyright 1983,
 Carnegie Mellon University). Gaussian is a federally registered
 trademark of Gaussian, Inc.
  
 This software contains proprietary and confidential information,
 including trade secrets, belonging to Gaussian, Inc.
  
 This software is provided under written license and may be
 used, copied, transmitted, or stored only in accord with that
 written license.
  
 The following legend is applicable only to US Government
 contracts under FAR:
  
                    RESTRICTED RIGHTS LEGEND
  
 Use, reproduction and disclosure by the US Government is
 subject to restrictions as set forth in subparagraphs (a)
 and (c) of the Commercial Computer Software - Restricted
 Rights clause in FAR 52.227-19.
  
 Gaussian, Inc.
 340 Quinnipiac St., Bldg. 40, Wallingford CT 06492
  
  
 ---------------------------------------------------------------
 Warning -- This program may not be used in any manner that
 competes with the business of Gaussian, Inc. or will provide
 assistance to any competitor of Gaussian, Inc.  The licensee
 of this program is prohibited from giving any competitor of
 Gaussian, Inc. access to this program.  By using this program,
 the user acknowledges that Gaussian, Inc. is engaged in the
 business of creating and licensing software in the field of
 computational chemistry and represents and warrants to the
 licensee that it is not a competitor of Gaussian, Inc. and that
 it will not use this program in any manner prohibited above.
 ---------------------------------------------------------------
  

 Cite this work as:
 Gaussian 09, Revision D.01,
 M. J. Frisch, G. W. Trucks, H. B. Schlegel, G. E. Scuseria, 
 M. A. Robb, J. R. Cheeseman, G. Scalmani, V. Barone, B. Mennucci, 
 G. A. Petersson, H. Nakatsuji, M. Caricato, X. Li, H. P. Hratchian, 
 A. F. Izmaylov, J. Bloino, G. Zheng, J. L. Sonnenberg, M. Hada, 
 M. Ehara, K. Toyota, R. Fukuda, J. Hasegawa, M. Ishida, T. Nakajima, 
 Y. Honda, O. Kitao, H. Nakai, T. Vreven, J. A. Montgomery, Jr., 
 J. E. Peralta, F. Ogliaro, M. Bearpark, J. J. Heyd, E. Brothers, 
 K. N. Kudin, V. N. Staroverov, T. Keith, R. Kobayashi, J. Normand, 
 K. Raghavachari, A. Rendell, J. C. Burant, S. S. Iyengar, J. Tomasi, 
 M. Cossi, N. Rega, J. M. Millam, M. Klene, J. E. Knox, J. B. Cross, 
 V. Bakken, C. Adamo, J. Jaramillo, R. Gomperts, R. E. Stratmann, 
 O. Yazyev, A. J. Austin, R. Cammi, C. Pomelli, J. W. Ochterski, 
 R. L. Martin, K. Morokuma, V. G. Zakrzewski, G. A. Voth, 
 P. Salvador, J. J. Dannenberg, S. Dapprich, A. D. Daniels, 
 O. Farkas, J. B. Foresman, J. V. Ortiz, J. Cioslowski, 
 and D. J. Fox, Gaussian, Inc., Wallingford CT, 2013.
 
 ******************************************
 Gaussian 09:  EM64L-G09RevD.01 24-Apr-2013
                24-Apr-2023 
 ******************************************
 %mem=30000MB
 %nprocshared=8
 Will use up to    8 processors via shared memory.
 ----------------------------------------
 # opt freq=noraman b3lyp/gen pseudo=read
 ----------------------------------------
 1/14=-1,18=20,19=15,26=3,38=1/1,3;
 2/9=110,12=2,17=6,18=5,40=1/2;
 3/5=7,11=2,16=1,17=8,25=1,30=1,71=1,74=-5/1,2,3;
 4//1;
 5/5=2,38=5/2;
 6/7=2,8=2,9=2,10=2,28=1/1;
 7//1,2,3,16;
 1/14=-1,18=20,19=15,26=3/3(2);
 2/9=110/2;
 99//99;
 2/9=110/2;
 3/5=7,6=1,11=2,16=1,17=8,25=1,30=1,71=1,74=-5,82=7/1,2,3;
 4/5=5,16=3,69=1/1;
 5/5=2,38=5/2;
 7//1,2,3,16;
 1/14=-1,18=20,19=15,26=3/3(-5);
 2/9=110/2;
 6/7=2,8=2,9=2,10=2,19=2,28=1/1;
 99/9=1/99;
 --
 af
 --
 Symbolic Z-matrix:
 Charge =  0 Multiplicity = 1
 Au                   -0.16889  -0.53913   0.00403 
 S                     1.9512   -1.52097   0.11114 
 P                    -2.30567   0.29827  -0.10691 
 C                    -3.50036  -0.88289  -0.83279 
 C                    -3.50423  -2.24994  -0.15364 
 C                    -3.00064   0.74227   1.52706 
 C                    -2.18884   1.80423   2.26325 
 C                    -2.41219   1.80505  -1.14306 
 C                    -3.78728   2.45702  -1.25463 
 H                    -4.49699  -0.42863  -0.79703 
 H                    -3.22469  -0.97971  -1.88911 
 H                    -4.20188  -2.91986  -0.6655 
 H                    -3.81826  -2.18362   0.8925 
 H                    -2.51029  -2.7083   -0.18113 
 H                    -4.03816   1.06559   1.38219 
 H                    -3.03167  -0.18507   2.10892 
 H                    -2.61741   1.9868    3.2533 
 H                    -2.18324   2.75665   1.72389 
 H                    -1.14998   1.48472   2.39668 
 H                    -2.03707   1.50859  -2.12932 
 H                    -1.6769    2.50902  -0.73781 
 H                    -4.5269    1.77922  -1.69059 
 H                    -3.72502   3.3378   -1.90143 
 H                    -4.16182   2.78987  -0.28194 
 C                     3.17505  -0.25421  -0.01181 
 C                     2.88277   1.1138   -0.10464 
 C                     4.52344  -0.64473  -0.01212 
 C                     3.9042    2.05525  -0.19527 
 H                     1.84592   1.43883  -0.10524 
 C                     5.54026   0.30028  -0.10304 
 H                     4.77196  -1.70034   0.05895 
 C                     5.23974   1.65839  -0.19535 
 H                     3.64921   3.10942  -0.26628 
 H                     6.57557  -0.03047  -0.10164 
 H                     6.03406   2.39521  -0.26627 
 

 GradGradGradGradGradGradGradGradGradGradGradGradGradGradGradGradGradGrad
 Berny optimization.
 Initialization pass.
                           ----------------------------
                           !    Initial Parameters    !
                           ! (Angstroms and Degrees)  !
 --------------------------                            --------------------------
 ! Name  Definition              Value          Derivative Info.                !
 --------------------------------------------------------------------------------
 ! R1    R(1,2)                  2.3389         estimate D2E/DX2                !
 ! R2    R(1,3)                  2.2977         estimate D2E/DX2                !
 ! R3    R(2,25)                 1.7657         estimate D2E/DX2                !
 ! R4    R(3,4)                  1.8301         estimate D2E/DX2                !
 ! R5    R(3,6)                  1.8303         estimate D2E/DX2                !
 ! R6    R(3,8)                  1.8317         estimate D2E/DX2                !
 ! R7    R(4,5)                  1.5265         estimate D2E/DX2                !
 ! R8    R(4,10)                 1.0959         estimate D2E/DX2                !
 ! R9    R(4,11)                 1.096          estimate D2E/DX2                !
 ! R10   R(5,12)                 1.0943         estimate D2E/DX2                !
 ! R11   R(5,13)                 1.0943         estimate D2E/DX2                !
 ! R12   R(5,14)                 1.0949         estimate D2E/DX2                !
 ! R13   R(6,7)                  1.526          estimate D2E/DX2                !
 ! R14   R(6,15)                 1.0963         estimate D2E/DX2                !
 ! R15   R(6,16)                 1.0952         estimate D2E/DX2                !
 ! R16   R(7,17)                 1.0942         estimate D2E/DX2                !
 ! R17   R(7,18)                 1.0946         estimate D2E/DX2                !
 ! R18   R(7,19)                 1.095          estimate D2E/DX2                !
 ! R19   R(8,9)                  1.5259         estimate D2E/DX2                !
 ! R20   R(8,20)                 1.096          estimate D2E/DX2                !
 ! R21   R(8,21)                 1.0957         estimate D2E/DX2                !
 ! R22   R(9,22)                 1.0938         estimate D2E/DX2                !
 ! R23   R(9,23)                 1.0945         estimate D2E/DX2                !
 ! R24   R(9,24)                 1.0942         estimate D2E/DX2                !
 ! R25   R(25,26)                1.402          estimate D2E/DX2                !
 ! R26   R(25,27)                1.4038         estimate D2E/DX2                !
 ! R27   R(26,28)                1.3921         estimate D2E/DX2                !
 ! R28   R(26,29)                1.0866         estimate D2E/DX2                !
 ! R29   R(27,30)                1.3911         estimate D2E/DX2                !
 ! R30   R(27,31)                1.0868         estimate D2E/DX2                !
 ! R31   R(28,32)                1.3933         estimate D2E/DX2                !
 ! R32   R(28,33)                1.0869         estimate D2E/DX2                !
 ! R33   R(30,32)                1.394          estimate D2E/DX2                !
 ! R34   R(30,34)                1.0869         estimate D2E/DX2                !
 ! R35   R(32,35)                1.0858         estimate D2E/DX2                !
 ! A1    A(1,2,25)             108.9011         estimate D2E/DX2                !
 ! A2    A(1,3,4)              113.0175         estimate D2E/DX2                !
 ! A3    A(1,3,6)              113.4791         estimate D2E/DX2                !
 ! A4    A(1,3,8)              112.4071         estimate D2E/DX2                !
 ! A5    A(4,3,6)              105.235          estimate D2E/DX2                !
 ! A6    A(4,3,8)              105.5801         estimate D2E/DX2                !
 ! A7    A(6,3,8)              106.4609         estimate D2E/DX2                !
 ! A8    A(3,4,5)              113.778          estimate D2E/DX2                !
 ! A9    A(3,4,10)             108.2526         estimate D2E/DX2                !
 ! A10   A(3,4,11)             105.9677         estimate D2E/DX2                !
 ! A11   A(5,4,10)             110.7574         estimate D2E/DX2                !
 ! A12   A(5,4,11)             110.5077         estimate D2E/DX2                !
 ! A13   A(10,4,11)            107.2668         estimate D2E/DX2                !
 ! A14   A(4,5,12)             109.984          estimate D2E/DX2                !
 ! A15   A(4,5,13)             111.8264         estimate D2E/DX2                !
 ! A16   A(4,5,14)             111.1888         estimate D2E/DX2                !
 ! A17   A(12,5,13)            107.5372         estimate D2E/DX2                !
 ! A18   A(12,5,14)            108.1033         estimate D2E/DX2                !
 ! A19   A(13,5,14)            108.053          estimate D2E/DX2                !
 ! A20   A(3,6,7)              113.4218         estimate D2E/DX2                !
 ! A21   A(3,6,15)             108.2347         estimate D2E/DX2                !
 ! A22   A(3,6,16)             106.2396         estimate D2E/DX2                !
 ! A23   A(7,6,15)             111.2196         estimate D2E/DX2                !
 ! A24   A(7,6,16)             110.3652         estimate D2E/DX2                !
 ! A25   A(15,6,16)            107.0433         estimate D2E/DX2                !
 ! A26   A(6,7,17)             110.1375         estimate D2E/DX2                !
 ! A27   A(6,7,18)             111.7487         estimate D2E/DX2                !
 ! A28   A(6,7,19)             111.1254         estimate D2E/DX2                !
 ! A29   A(17,7,18)            107.6186         estimate D2E/DX2                !
 ! A30   A(17,7,19)            108.0604         estimate D2E/DX2                !
 ! A31   A(18,7,19)            108.0039         estimate D2E/DX2                !
 ! A32   A(3,8,9)              116.4379         estimate D2E/DX2                !
 ! A33   A(3,8,20)             105.4625         estimate D2E/DX2                !
 ! A34   A(3,8,21)             106.2772         estimate D2E/DX2                !
 ! A35   A(9,8,20)             110.9891         estimate D2E/DX2                !
 ! A36   A(9,8,21)             110.9335         estimate D2E/DX2                !
 ! A37   A(20,8,21)            106.0769         estimate D2E/DX2                !
 ! A38   A(8,9,22)             111.9451         estimate D2E/DX2                !
 ! A39   A(8,9,23)             109.6194         estimate D2E/DX2                !
 ! A40   A(8,9,24)             111.9285         estimate D2E/DX2                !
 ! A41   A(22,9,23)            107.5521         estimate D2E/DX2                !
 ! A42   A(22,9,24)            108.1407         estimate D2E/DX2                !
 ! A43   A(23,9,24)            107.4585         estimate D2E/DX2                !
 ! A44   A(2,25,26)            124.0671         estimate D2E/DX2                !
 ! A45   A(2,25,27)            117.7883         estimate D2E/DX2                !
 ! A46   A(26,25,27)           118.1443         estimate D2E/DX2                !
 ! A47   A(25,26,28)           120.747          estimate D2E/DX2                !
 ! A48   A(25,26,29)           119.3972         estimate D2E/DX2                !
 ! A49   A(28,26,29)           119.8559         estimate D2E/DX2                !
 ! A50   A(25,27,30)           120.8717         estimate D2E/DX2                !
 ! A51   A(25,27,31)           119.3299         estimate D2E/DX2                !
 ! A52   A(30,27,31)           119.7984         estimate D2E/DX2                !
 ! A53   A(26,28,32)           120.712          estimate D2E/DX2                !
 ! A54   A(26,28,33)           119.2119         estimate D2E/DX2                !
 ! A55   A(32,28,33)           120.0761         estimate D2E/DX2                !
 ! A56   A(27,30,32)           120.5687         estimate D2E/DX2                !
 ! A57   A(27,30,34)           119.3049         estimate D2E/DX2                !
 ! A58   A(32,30,34)           120.1264         estimate D2E/DX2                !
 ! A59   A(28,32,30)           118.9564         estimate D2E/DX2                !
 ! A60   A(28,32,35)           120.5295         estimate D2E/DX2                !
 ! A61   A(30,32,35)           120.5141         estimate D2E/DX2                !
 ! A62   L(2,1,3,29,-1)        183.4304         estimate D2E/DX2                !
 ! A63   L(2,1,3,29,-2)        179.6182         estimate D2E/DX2                !
 ! D1    D(25,2,3,4)           150.6314         estimate D2E/DX2                !
 ! D2    D(25,2,3,6)           -90.6625         estimate D2E/DX2                !
 ! D3    D(25,2,3,8)            31.4383         estimate D2E/DX2                !
 ! D4    D(1,2,25,26)            2.2661         estimate D2E/DX2                !
 ! D5    D(1,2,25,27)         -177.9403         estimate D2E/DX2                !
 ! D6    D(1,3,4,5)             53.3156         estimate D2E/DX2                !
 ! D7    D(1,3,4,10)           176.8965         estimate D2E/DX2                !
 ! D8    D(1,3,4,11)           -68.3031         estimate D2E/DX2                !
 ! D9    D(6,3,4,5)            -71.0414         estimate D2E/DX2                !
 ! D10   D(6,3,4,10)            52.5395         estimate D2E/DX2                !
 ! D11   D(6,3,4,11)           167.3398         estimate D2E/DX2                !
 ! D12   D(8,3,4,5)            176.5738         estimate D2E/DX2                !
 ! D13   D(8,3,4,10)           -59.8453         estimate D2E/DX2                !
 ! D14   D(8,3,4,11)            54.9551         estimate D2E/DX2                !
 ! D15   D(1,3,6,7)             59.8472         estimate D2E/DX2                !
 ! D16   D(1,3,6,15)          -176.234          estimate D2E/DX2                !
 ! D17   D(1,3,6,16)           -61.5649         estimate D2E/DX2                !
 ! D18   D(4,3,6,7)           -176.0874         estimate D2E/DX2                !
 ! D19   D(4,3,6,15)           -52.1687         estimate D2E/DX2                !
 ! D20   D(4,3,6,16)            62.5004         estimate D2E/DX2                !
 ! D21   D(8,3,6,7)            -64.3264         estimate D2E/DX2                !
 ! D22   D(8,3,6,15)            59.5924         estimate D2E/DX2                !
 ! D23   D(8,3,6,16)           174.2615         estimate D2E/DX2                !
 ! D24   D(1,3,8,9)           -178.6715         estimate D2E/DX2                !
 ! D25   D(1,3,8,20)            57.7835         estimate D2E/DX2                !
 ! D26   D(1,3,8,21)           -54.5561         estimate D2E/DX2                !
 ! D27   D(4,3,8,9)             57.6836         estimate D2E/DX2                !
 ! D28   D(4,3,8,20)           -65.8614         estimate D2E/DX2                !
 ! D29   D(4,3,8,21)          -178.201          estimate D2E/DX2                !
 ! D30   D(6,3,8,9)            -53.8377         estimate D2E/DX2                !
 ! D31   D(6,3,8,20)          -177.3828         estimate D2E/DX2                !
 ! D32   D(6,3,8,21)            70.2777         estimate D2E/DX2                !
 ! D33   D(3,4,5,12)          -177.2282         estimate D2E/DX2                !
 ! D34   D(3,4,5,13)            63.3632         estimate D2E/DX2                !
 ! D35   D(3,4,5,14)           -57.5199         estimate D2E/DX2                !
 ! D36   D(10,4,5,12)           60.5628         estimate D2E/DX2                !
 ! D37   D(10,4,5,13)          -58.8459         estimate D2E/DX2                !
 ! D38   D(10,4,5,14)         -179.729          estimate D2E/DX2                !
 ! D39   D(11,4,5,12)          -58.1663         estimate D2E/DX2                !
 ! D40   D(11,4,5,13)         -177.575          estimate D2E/DX2                !
 ! D41   D(11,4,5,14)           61.5419         estimate D2E/DX2                !
 ! D42   D(3,6,7,17)          -176.7696         estimate D2E/DX2                !
 ! D43   D(3,6,7,18)            63.6675         estimate D2E/DX2                !
 ! D44   D(3,6,7,19)           -57.0553         estimate D2E/DX2                !
 ! D45   D(15,6,7,17)           60.9539         estimate D2E/DX2                !
 ! D46   D(15,6,7,18)          -58.609          estimate D2E/DX2                !
 ! D47   D(15,6,7,19)         -179.3317         estimate D2E/DX2                !
 ! D48   D(16,6,7,17)          -57.6989         estimate D2E/DX2                !
 ! D49   D(16,6,7,18)         -177.2618         estimate D2E/DX2                !
 ! D50   D(16,6,7,19)           62.0155         estimate D2E/DX2                !
 ! D51   D(3,8,9,22)           -60.3127         estimate D2E/DX2                !
 ! D52   D(3,8,9,23)          -179.5741         estimate D2E/DX2                !
 ! D53   D(3,8,9,24)            61.292          estimate D2E/DX2                !
 ! D54   D(20,8,9,22)           60.329          estimate D2E/DX2                !
 ! D55   D(20,8,9,23)          -58.9324         estimate D2E/DX2                !
 ! D56   D(20,8,9,24)         -178.0663         estimate D2E/DX2                !
 ! D57   D(21,8,9,22)          177.9956         estimate D2E/DX2                !
 ! D58   D(21,8,9,23)           58.7342         estimate D2E/DX2                !
 ! D59   D(21,8,9,24)          -60.3997         estimate D2E/DX2                !
 ! D60   D(2,25,26,28)         179.8321         estimate D2E/DX2                !
 ! D61   D(2,25,26,29)          -0.1494         estimate D2E/DX2                !
 ! D62   D(27,25,26,28)          0.0391         estimate D2E/DX2                !
 ! D63   D(27,25,26,29)       -179.9424         estimate D2E/DX2                !
 ! D64   D(2,25,27,30)        -179.8517         estimate D2E/DX2                !
 ! D65   D(2,25,27,31)           0.1981         estimate D2E/DX2                !
 ! D66   D(26,25,27,30)         -0.0455         estimate D2E/DX2                !
 ! D67   D(26,25,27,31)       -179.9958         estimate D2E/DX2                !
 ! D68   D(25,26,28,32)         -0.0163         estimate D2E/DX2                !
 ! D69   D(25,26,28,33)        179.9923         estimate D2E/DX2                !
 ! D70   D(29,26,28,32)        179.9651         estimate D2E/DX2                !
 ! D71   D(29,26,28,33)         -0.0262         estimate D2E/DX2                !
 ! D72   D(25,27,30,32)          0.0292         estimate D2E/DX2                !
 ! D73   D(25,27,30,34)       -179.9629         estimate D2E/DX2                !
 ! D74   D(31,27,30,32)        179.9791         estimate D2E/DX2                !
 ! D75   D(31,27,30,34)         -0.0129         estimate D2E/DX2                !
 ! D76   D(26,28,32,30)         -0.0012         estimate D2E/DX2                !
 ! D77   D(26,28,32,35)        179.9939         estimate D2E/DX2                !
 ! D78   D(33,28,32,30)        179.99           estimate D2E/DX2                !
 ! D79   D(33,28,32,35)         -0.0148         estimate D2E/DX2                !
 ! D80   D(27,30,32,28)         -0.0051         estimate D2E/DX2                !
 ! D81   D(27,30,32,35)        179.9997         estimate D2E/DX2                !
 ! D82   D(34,30,32,28)        179.9869         estimate D2E/DX2                !
 ! D83   D(34,30,32,35)         -0.0083         estimate D2E/DX2                !
 --------------------------------------------------------------------------------
 Trust Radius=3.00D-01 FncErr=1.00D-07 GrdErr=1.00D-06
 Number of steps in this run=    191 maximum allowed number of steps=    210.
 GradGradGradGradGradGradGradGradGradGradGradGradGradGradGradGradGradGrad

                          Input orientation:                          
 ---------------------------------------------------------------------
 Center     Atomic      Atomic             Coordinates (Angstroms)
 Number     Number       Type             X           Y           Z
 ---------------------------------------------------------------------
      1         79           0       -0.168886   -0.539130    0.004033
      2         16           0        1.951200   -1.520972    0.111141
      3         15           0       -2.305673    0.298272   -0.106914
      4          6           0       -3.500359   -0.882887   -0.832785
      5          6           0       -3.504231   -2.249944   -0.153638
      6          6           0       -3.000641    0.742265    1.527057
      7          6           0       -2.188839    1.804226    2.263248
      8          6           0       -2.412189    1.805045   -1.143058
      9          6           0       -3.787284    2.457020   -1.254629
     10          1           0       -4.496989   -0.428626   -0.797026
     11          1           0       -3.224690   -0.979710   -1.889111
     12          1           0       -4.201884   -2.919859   -0.665504
     13          1           0       -3.818262   -2.183624    0.892496
     14          1           0       -2.510291   -2.708297   -0.181126
     15          1           0       -4.038164    1.065589    1.382194
     16          1           0       -3.031671   -0.185065    2.108916
     17          1           0       -2.617406    1.986804    3.253295
     18          1           0       -2.183239    2.756653    1.723891
     19          1           0       -1.149984    1.484715    2.396680
     20          1           0       -2.037074    1.508588   -2.129324
     21          1           0       -1.676899    2.509021   -0.737814
     22          1           0       -4.526901    1.779223   -1.690587
     23          1           0       -3.725021    3.337795   -1.901433
     24          1           0       -4.161823    2.789868   -0.281936
     25          6           0        3.175055   -0.254208   -0.011808
     26          6           0        2.882766    1.113799   -0.104643
     27          6           0        4.523436   -0.644729   -0.012124
     28          6           0        3.904202    2.055248   -0.195270
     29          1           0        1.845922    1.438832   -0.105236
     30          6           0        5.540255    0.300278   -0.103043
     31          1           0        4.771955   -1.700339    0.058954
     32          6           0        5.239741    1.658391   -0.195351
     33          1           0        3.649209    3.109421   -0.266284
     34          1           0        6.575565   -0.030468   -0.101640
     35          1           0        6.034063    2.395205   -0.266268
 ---------------------------------------------------------------------
                    Distance matrix (angstroms):
                    1          2          3          4          5
     1  Au   0.000000
     2  S    2.338857   0.000000
     3  P    2.297697   4.634454   0.000000
     4  C    3.452122   5.569349   1.830109   0.000000
     5  C    3.751836   5.510285   2.816404   1.526467   0.000000
     6  C    3.461273   5.625637   1.830293   2.908555   3.468667
     7  C    3.830872   5.729610   2.810554   4.304193   4.899785
     8  C    3.441422   5.628016   1.831749   2.916395   4.314446
     9  C    4.863533   7.114770   2.858778   3.378647   4.842294
    10  H    4.402997   6.602812   2.409668   1.095857   2.171800
    11  H    3.621608   5.575286   2.377826   1.095989   2.168756
    12  H    4.730880   6.357712   3.776772   2.160874   1.094309
    13  H    4.100204   5.859720   3.073525   2.183935   1.094262
    14  H    3.197147   4.626020   3.014437   2.176469   1.094879
    15  H    4.409735   6.646680   2.409926   2.998654   3.692780
    16  H    3.570915   5.532157   2.381300   3.059449   3.099385
    17  H    4.788872   6.561233   3.773503   5.070580   5.508510
    18  H    4.228205   6.163816   3.067650   4.638712   5.507826
    19  H    3.283788   4.886224   3.001874   4.643194   5.098458
    20  H    3.497783   5.486734   2.372162   3.088911   4.492488
    21  H    3.480756   5.488595   2.383443   3.852151   5.131097
    22  H    5.219080   7.490214   3.104044   2.979336   4.431958
    23  H    5.595306   7.738059   3.804412   4.359660   5.858870
    24  H    5.206491   7.490454   3.111909   3.772280   5.084151
    25  C    3.356095   1.765681   5.509325   6.755027   6.972513
    26  C    3.472256   2.802926   5.252141   6.727647   7.218788
    27  C    4.693538   2.720183   6.894561   8.069169   8.187807
    28  C    4.833277   4.086252   6.454248   7.991657   8.568622
    29  H    2.825549   2.969569   4.305418   5.873877   6.498734
    30  C    5.771513   4.030402   7.845929   9.146863   9.397283
    31  H    5.075759   2.826934   7.356275   8.360299   8.297139
    32  C    5.841412   4.584407   7.667530   9.124350   9.577780
    33  H    5.287991   4.946334   6.587001   8.208274   8.939082
    34  H    6.764431   4.863294   8.887322  10.138315  10.321389
    35  H    6.867311   5.669978   8.600798  10.098120  10.609861
                    6          7          8          9         10
     6  C    0.000000
     7  C    1.526028   0.000000
     8  C    2.933478   3.413621   0.000000
     9  C    3.361096   3.918753   1.525911   0.000000
    10  H    3.001900   4.436041   3.074966   3.006665   0.000000
    11  H    3.832179   5.105426   2.995265   3.539801   1.764961
    12  H    4.434125   5.911592   5.075016   5.424923   2.512096
    13  H    3.103546   4.520722   4.693613   5.113383   2.528868
    14  H    3.881328   5.142097   4.615755   5.428040   3.085969
    15  H    1.096347   2.177577   3.093136   2.991965   2.681827
    16  H    1.095200   2.165978   3.862594   4.343386   3.263584
    17  H    2.162324   1.094165   4.404892   4.680929   5.076636
    18  H    2.182808   1.094557   3.029418   3.396222   4.674876
    19  H    2.175410   1.095039   3.771673   4.607905   5.006303
    20  H    3.858087   4.405125   1.096047   2.174362   3.402793
    21  H    3.162809   3.124931   1.095653   2.173368   4.072614
    22  H    3.709176   4.593470   2.184596   1.093847   2.382004
    23  H    4.360739   4.696409   2.155918   1.094530   4.000197
    24  H    2.968750   3.367806   2.184634   1.094166   3.276638
    25  C    6.442071   6.179352   6.061150   7.574267   7.714094
    26  C    6.116777   5.639572   5.439915   6.900455   7.570948
    27  C    7.804138   7.498622   7.441996   8.957273   9.057088
    28  C    7.236518   6.575140   6.392003   7.774485   8.781330
    29  H    5.161275   4.692816   4.398033   5.838735   6.648195
    30  C    8.706290   8.221927   8.160105   9.642649  10.087576
    31  H    8.278580   8.098984   8.083593   9.605712   9.394854
    32  C    8.468168   7.826224   7.711789   9.123983   9.976050
    33  H    7.282857   6.494988   6.261843   7.530198   8.897191
    34  H    9.744408   9.261402   9.232193  10.719404  11.101511
    35  H    9.358104   8.623446   8.512122   9.871147  10.915987
                   11         12         13         14         15
    11  H    0.000000
    12  H    2.493251   0.000000
    13  H    3.088539   1.765381   0.000000
    14  H    2.532902   1.772249   1.771647   0.000000
    15  H    3.942895   4.483711   3.293258   4.361259   0.000000
    16  H    4.080801   4.067666   2.468328   3.447148   1.762183
    17  H    5.967691   6.476334   4.940435   5.818135   2.523531
    18  H    5.300831   6.481275   5.269806   5.796700   2.533220
    19  H    5.361511   6.171818   4.779015   5.106552   3.089730
    20  H    2.767627   5.142015   5.092785   4.669211   4.065878
    21  H    3.986526   5.987781   5.409645   5.312707   3.486187
    22  H    3.057266   4.820560   4.783162   5.146166   3.192197
    23  H    4.346416   6.396339   6.188764   6.402363   4.005394
    24  H    4.203683   5.722736   5.121811   5.741737   2.399533
    25  C    6.708752   7.870975   7.310738   6.194706   7.464291
    26  C    6.698367   8.171733   7.534657   6.610547   7.079003
    27  C    7.979270   9.040704   8.530560   7.332134   8.841397
    28  C    7.931026   9.522680   8.876245   7.989824   8.157757
    29  H    5.894291   7.475831   6.797105   6.015067   6.080644
    30  C    9.036187  10.275939   9.733587   8.594703   9.723052
    31  H    8.261997   9.085255   8.644084   7.355591   9.328425
    32  C    9.026350  10.503604   9.899086   8.895570   9.429718
    33  H    8.161192   9.907132   9.226170   8.473048   8.123450
    34  H   10.007053  11.172284  10.660958   9.472585  10.772852
    35  H    9.987401  11.540533  10.925965   9.952837  10.292476
                   16         17         18         19         20
    16  H    0.000000
    17  H    2.489625   0.000000
    18  H    3.085739   1.766422   0.000000
    19  H    2.532137   1.771782   1.771465   0.000000
    20  H    4.671227   5.434893   4.052937   4.612181   0.000000
    21  H    4.146972   4.133548   2.525410   3.339445   1.751254
    22  H    4.531044   5.303888   4.255206   5.309996   2.542631
    23  H    5.382767   5.442721   3.982184   5.342143   2.499419
    24  H    3.980407   3.940558   2.817666   4.236695   3.093393
    25  C    6.559398   7.016811   6.386646   5.246964   5.895559
    26  C    6.447283   6.503059   5.630889   4.759965   5.334793
    27  C    7.860645   8.281277   7.717683   6.521086   7.222160
    28  C    7.644253   7.377578   6.421222   5.708635   6.272014
    29  H    5.597359   5.612602   4.616979   3.903478   4.379436
    30  C    8.866016   8.980914   8.308058   7.239531   7.936104
    31  H    8.209444   8.854462   8.426833   7.118911   7.838919
    32  C    8.782040   8.586954   7.745341   6.897635   7.530918
    33  H    7.818527   7.274488   6.172738   5.723924   6.194142
    34  H    9.859485   9.991781   9.371086   8.259630   8.980966
    35  H    9.720433   9.348905   8.462590   7.715622   8.330685
                   21         22         23         24         25
    21  H    0.000000
    22  H    3.092393   0.000000
    23  H    2.497134   1.765394   0.000000
    24  H    2.541957   1.771718   1.764594   0.000000
    25  C    5.630628   8.140839   8.005262   7.947902   0.000000
    26  C    4.810207   7.606653   7.199824   7.243402   1.401961
    27  C    6.994063   9.518476   9.352381   9.343606   1.403794
    28  C    5.625740   8.567127   7.922182   8.099873   2.428765
    29  H    3.735737   6.575871   6.153681   6.160318   2.154462
    30  C    7.574219  10.298311   9.914941  10.018003   2.431039
    31  H    7.742175  10.081516  10.070974  10.004527   2.155549
    32  C    6.989832   9.881175   9.278905   9.469802   2.820399
    33  H    5.380543   8.405167   7.556794   7.817581   3.406403
    34  H    8.657764  11.360655  10.985742  11.103076   3.409046
    35  H    7.726205  10.674366   9.939918  10.203533   3.906157
                   26         27         28         29         30
    26  C    0.000000
    27  C    2.406819   0.000000
    28  C    1.392074   2.776125   0.000000
    29  H    1.086597   3.393962   2.150486   0.000000
    30  C    2.779221   1.391124   2.401061   3.865800   0.000000
    31  H    3.393401   1.086796   3.862908   4.294534   2.149185
    32  C    2.420773   2.418890   1.393255   3.402107   1.394023
    33  H    2.143845   3.862967   1.086897   2.463463   3.390278
    34  H    3.866021   2.143960   3.390451   4.952613   1.086859
    35  H    3.405701   3.404083   2.157990   4.298966   2.158520
                   31         32         33         34         35
    31  H    0.000000
    32  C    3.400671   0.000000
    33  H    4.949761   2.154138   0.000000
    34  H    2.463183   2.155331   4.295296   0.000000
    35  H    4.297926   1.085759   2.489505   2.490826   0.000000
 Stoichiometry    C12H20AuPS
 Framework group  C1[X(C12H20AuPS)]
 Deg. of freedom    99
 Full point group                 C1      NOp   1
 Largest Abelian subgroup         C1      NOp   1
 Largest concise Abelian subgroup C1      NOp   1
                         Standard orientation:                         
 ---------------------------------------------------------------------
 Center     Atomic      Atomic             Coordinates (Angstroms)
 Number     Number       Type             X           Y           Z
 ---------------------------------------------------------------------
      1         79           0       -0.168886   -0.539130    0.004033
      2         16           0        1.951200   -1.520972    0.111141
      3         15           0       -2.305673    0.298272   -0.106914
      4          6           0       -3.500359   -0.882887   -0.832785
      5          6           0       -3.504231   -2.249944   -0.153638
      6          6           0       -3.000641    0.742265    1.527057
      7          6           0       -2.188839    1.804226    2.263248
      8          6           0       -2.412189    1.805045   -1.143058
      9          6           0       -3.787284    2.457020   -1.254629
     10          1           0       -4.496989   -0.428626   -0.797026
     11          1           0       -3.224690   -0.979710   -1.889111
     12          1           0       -4.201884   -2.919859   -0.665504
     13          1           0       -3.818262   -2.183624    0.892496
     14          1           0       -2.510291   -2.708297   -0.181126
     15          1           0       -4.038164    1.065589    1.382194
     16          1           0       -3.031671   -0.185065    2.108916
     17          1           0       -2.617406    1.986804    3.253295
     18          1           0       -2.183239    2.756653    1.723891
     19          1           0       -1.149984    1.484715    2.396680
     20          1           0       -2.037074    1.508588   -2.129324
     21          1           0       -1.676899    2.509021   -0.737814
     22          1           0       -4.526901    1.779223   -1.690587
     23          1           0       -3.725021    3.337795   -1.901433
     24          1           0       -4.161823    2.789868   -0.281936
     25          6           0        3.175055   -0.254208   -0.011808
     26          6           0        2.882766    1.113799   -0.104643
     27          6           0        4.523436   -0.644729   -0.012124
     28          6           0        3.904202    2.055248   -0.195270
     29          1           0        1.845922    1.438832   -0.105236
     30          6           0        5.540255    0.300278   -0.103043
     31          1           0        4.771955   -1.700339    0.058954
     32          6           0        5.239741    1.658391   -0.195351
     33          1           0        3.649209    3.109421   -0.266284
     34          1           0        6.575565   -0.030468   -0.101640
     35          1           0        6.034063    2.395205   -0.266268
 ---------------------------------------------------------------------
 Rotational constants (GHZ):      0.6923719      0.1801250      0.1589236
 General basis read from cards:  (5D, 7F)
 ======================================================================================================
                                       Pseudopotential Parameters
 ======================================================================================================
  Center     Atomic      Valence      Angular      Power
  Number     Number     Electrons     Momentum     of R      Exponent        Coefficient   SO-Coeffient
 ======================================================================================================
    1         79           19
                                      G and up 
                                                     1      622.6287956      -60.00000000    0.00000000
                                                     2      136.2843607     -555.52923120    0.00000000
                                                     2       33.1549781     -168.00197850    0.00000000
                                                     2        9.9894895      -63.03998750    0.00000000
                                                     2        3.0481312       -4.25166810    0.00000000
                                      S - G
                                                     0      194.7374304        3.00000000    0.00000000
                                                     1      351.5327447       38.60208800    0.00000000
                                                     2      122.3270402      864.83707270    0.00000000
                                                     2       32.0914617      374.99355200    0.00000000
                                                     2        5.2451812      289.79101000    0.00000000
                                                     2        4.4916223     -152.45327730    0.00000000
                                      P - G
                                                     0      420.6158801        2.00000000    0.00000000
                                                     1      109.4417815       73.88856250    0.00000000
                                                     2       34.1714280      326.67298720    0.00000000
                                                     2        5.9879750      126.58145910    0.00000000
                                      D - G
                                                     0      219.2666158        3.00000000    0.00000000
                                                     1      122.7297786       55.67931490    0.00000000
                                                     2       63.1063369      449.19873350    0.00000000
                                                     2       18.3684520      215.02690910    0.00000000
                                                     2        4.4972844       64.08409950    0.00000000
                                      F - G
                                                     0      108.5506037        4.00000000    0.00000000
                                                     1       56.4795527       51.80653350    0.00000000
                                                     2       29.2069159      231.21831130    0.00000000
                                                     2        9.5440543      119.00473860    0.00000000
                                                     2        2.8965118       15.34241880    0.00000000
    2         16
                                   No pseudopotential on this center.
    3         15
                                   No pseudopotential on this center.
    4          6
                                   No pseudopotential on this center.
    5          6
                                   No pseudopotential on this center.
    6          6
                                   No pseudopotential on this center.
    7          6
                                   No pseudopotential on this center.
    8          6
                                   No pseudopotential on this center.
    9          6
                                   No pseudopotential on this center.
   10          1
                                   No pseudopotential on this center.
   11          1
                                   No pseudopotential on this center.
   12          1
                                   No pseudopotential on this center.
   13          1
                                   No pseudopotential on this center.
   14          1
                                   No pseudopotential on this center.
   15          1
                                   No pseudopotential on this center.
   16          1
                                   No pseudopotential on this center.
   17          1
                                   No pseudopotential on this center.
   18          1
                                   No pseudopotential on this center.
   19          1
                                   No pseudopotential on this center.
   20          1
                                   No pseudopotential on this center.
   21          1
                                   No pseudopotential on this center.
   22          1
                                   No pseudopotential on this center.
   23          1
                                   No pseudopotential on this center.
   24          1
                                   No pseudopotential on this center.
   25          6
                                   No pseudopotential on this center.
   26          6
                                   No pseudopotential on this center.
   27          6
                                   No pseudopotential on this center.
   28          6
                                   No pseudopotential on this center.
   29          1
                                   No pseudopotential on this center.
   30          6
                                   No pseudopotential on this center.
   31          1
                                   No pseudopotential on this center.
   32          6
                                   No pseudopotential on this center.
   33          1
                                   No pseudopotential on this center.
   34          1
                                   No pseudopotential on this center.
   35          1
                                   No pseudopotential on this center.
 ======================================================================================================
 There are   306 symmetry adapted cartesian basis functions of A   symmetry.
 There are   286 symmetry adapted basis functions of A   symmetry.
   286 basis functions,   568 primitive gaussians,   306 cartesian basis functions
    71 alpha electrons       71 beta electrons
       nuclear repulsion energy      1364.9214320439 Hartrees.
 NAtoms=   35 NActive=   35 NUniq=   35 SFac= 1.00D+00 NAtFMM=   60 NAOKFM=F Big=F
 Integral buffers will be    131072 words long.
 Raffenetti 2 integral format.
 Two-electron integral symmetry is turned on.
 One-electron integrals computed using PRISM.
   1 Symmetry operations used in ECPInt.
 ECPInt:  NShTT=    6328 NPrTT=   34272 LenC2=    5492 LenP2D=   18176.
 LDataN:  DoStor=T MaxTD1= 7 Len=  274
 NBasis=   286 RedAO= T EigKep=  5.08D-04  NBF=   286
 NBsUse=   286 1.00D-06 EigRej= -1.00D+00 NBFU=   286
 Defaulting to unpruned grid for atomic number  79.
 ExpMin= 2.79D-02 ExpMax= 2.19D+04 ExpMxC= 3.30D+03 IAcc=3 IRadAn=         5 AccDes= 0.00D+00
 Harris functional with IExCor=  402 and IRadAn=       5 diagonalized for initial guess.
 HarFok:  IExCor=  402 AccDes= 0.00D+00 IRadAn=         5 IDoV= 1 UseB2=F ITyADJ=14
 ICtDFT=  3500011 ScaDFX=  1.000000  1.000000  1.000000  1.000000
 Defaulting to unpruned grid for atomic number  79.
 Defaulting to unpruned grid for atomic number  79.
 Defaulting to unpruned grid for atomic number  79.
 Defaulting to unpruned grid for atomic number  79.
 Defaulting to unpruned grid for atomic number  79.
 Defaulting to unpruned grid for atomic number  79.
 Defaulting to unpruned grid for atomic number  79.
 Defaulting to unpruned grid for atomic number  79.
 FoFCou: FMM=F IPFlag=           0 FMFlag=      100000 FMFlg1=           0
         NFxFlg=           0 DoJE=T BraDBF=F KetDBF=T FulRan=T
         wScrn=  0.000000 ICntrl=     500 IOpCl=  0 I1Cent=   200000004 NGrid=           0
         NMat0=    1 NMatS0=      1 NMatT0=    0 NMatD0=    1 NMtDS0=    0 NMtDT0=    0
 Petite list used in FoFCou.
 Keep R1 ints in memory in canonical form, NReq=856973639.
 Requested convergence on RMS density matrix=1.00D-08 within 128 cycles.
 Requested convergence on MAX density matrix=1.00D-06.
 Requested convergence on             energy=1.00D-06.
 No special actions if energy rises.
 Defaulting to unpruned grid for atomic number  79.
 Defaulting to unpruned grid for atomic number  79.
 Defaulting to unpruned grid for atomic number  79.
 Defaulting to unpruned grid for atomic number  79.
 Defaulting to unpruned grid for atomic number  79.
 Defaulting to unpruned grid for atomic number  79.
 Defaulting to unpruned grid for atomic number  79.
 Defaulting to unpruned grid for atomic number  79.
 SCF Done:  E(RB3LYP) =  -1344.41497785     A.U. after   15 cycles
            NFock= 15  Conv=0.51D-08     -V/T= 2.0777

 **********************************************************************

            Population analysis using the SCF density.

 **********************************************************************

 Orbital symmetries:
       Occupied  (A) (A) (A) (A) (A) (A) (A) (A) (A) (A) (A) (A)
                 (A) (A) (A) (A) (A) (A) (A) (A) (A) (A) (A) (A)
                 (A) (A) (A) (A) (A) (A) (A) (A) (A) (A) (A) (A)
                 (A) (A) (A) (A) (A) (A) (A) (A) (A) (A) (A) (A)
                 (A) (A) (A) (A) (A) (A) (A) (A) (A) (A) (A) (A)
                 (A) (A) (A) (A) (A) (A) (A) (A) (A) (A) (A)
       Virtual   (A) (A) (A) (A) (A) (A) (A) (A) (A) (A) (A) (A)
                 (A) (A) (A) (A) (A) (A) (A) (A) (A) (A) (A) (A)
                 (A) (A) (A) (A) (A) (A) (A) (A) (A) (A) (A) (A)
                 (A) (A) (A) (A) (A) (A) (A) (A) (A) (A) (A) (A)
                 (A) (A) (A) (A) (A) (A) (A) (A) (A) (A) (A) (A)
                 (A) (A) (A) (A) (A) (A) (A) (A) (A) (A) (A) (A)
                 (A) (A) (A) (A) (A) (A) (A) (A) (A) (A) (A) (A)
                 (A) (A) (A) (A) (A) (A) (A) (A) (A) (A) (A) (A)
                 (A) (A) (A) (A) (A) (A) (A) (A) (A) (A) (A) (A)
                 (A) (A) (A) (A) (A) (A) (A) (A) (A) (A) (A) (A)
                 (A) (A) (A) (A) (A) (A) (A) (A) (A) (A) (A) (A)
                 (A) (A) (A) (A) (A) (A) (A) (A) (A) (A) (A) (A)
                 (A) (A) (A) (A) (A) (A) (A) (A) (A) (A) (A) (A)
                 (A) (A) (A) (A) (A) (A) (A) (A) (A) (A) (A) (A)
                 (A) (A) (A) (A) (A) (A) (A) (A) (A) (A) (A) (A)
                 (A) (A) (A) (A) (A) (A) (A) (A) (A) (A) (A) (A)
                 (A) (A) (A) (A) (A) (A) (A) (A) (A) (A) (A) (A)
                 (A) (A) (A) (A) (A) (A) (A) (A) (A) (A) (A)
 The electronic state is 1-A.
 Alpha  occ. eigenvalues --  -88.80608 -77.11899 -10.21562 -10.21443 -10.21339
 Alpha  occ. eigenvalues --  -10.20379 -10.19621 -10.19562 -10.18505 -10.16052
 Alpha  occ. eigenvalues --  -10.15928 -10.15636 -10.15533 -10.15499  -7.88258
 Alpha  occ. eigenvalues --   -6.60012  -5.84640  -5.84173  -5.83855  -4.76153
 Alpha  occ. eigenvalues --   -4.76143  -4.75912  -4.16263  -2.30878  -2.28862
 Alpha  occ. eigenvalues --   -2.28681  -0.83231  -0.82973  -0.78814  -0.78561
 Alpha  occ. eigenvalues --   -0.74286  -0.71876  -0.69633  -0.65501  -0.65008
 Alpha  occ. eigenvalues --   -0.64482  -0.57907  -0.56726  -0.55348  -0.49896
 Alpha  occ. eigenvalues --   -0.48538  -0.48308  -0.48001  -0.46475  -0.44728
 Alpha  occ. eigenvalues --   -0.43929  -0.42751  -0.42416  -0.41289  -0.40568
 Alpha  occ. eigenvalues --   -0.40261  -0.39528  -0.39308  -0.39145  -0.38477
 Alpha  occ. eigenvalues --   -0.37473  -0.36146  -0.35161  -0.34887  -0.34464
 Alpha  occ. eigenvalues --   -0.32365  -0.32027  -0.31903  -0.29791  -0.29734
 Alpha  occ. eigenvalues --   -0.29396  -0.26928  -0.25335  -0.23230  -0.22511
 Alpha  occ. eigenvalues --   -0.17010
 Alpha virt. eigenvalues --   -0.01981  -0.01413   0.02079   0.02641   0.03368
 Alpha virt. eigenvalues --    0.03592   0.05093   0.05569   0.07173   0.08603
 Alpha virt. eigenvalues --    0.10144   0.10342   0.10472   0.11378   0.11931
 Alpha virt. eigenvalues --    0.12707   0.13829   0.13921   0.14205   0.15161
 Alpha virt. eigenvalues --    0.15401   0.15614   0.16054   0.17158   0.17643
 Alpha virt. eigenvalues --    0.18222   0.18592   0.19114   0.19513   0.19646
 Alpha virt. eigenvalues --    0.20166   0.20843   0.21017   0.22839   0.23122
 Alpha virt. eigenvalues --    0.24490   0.27344   0.29985   0.31687   0.32307
 Alpha virt. eigenvalues --    0.33194   0.36305   0.36612   0.38289   0.40270
 Alpha virt. eigenvalues --    0.40597   0.41253   0.42337   0.43408   0.44401
 Alpha virt. eigenvalues --    0.45892   0.46112   0.48875   0.51094   0.52426
 Alpha virt. eigenvalues --    0.54668   0.55578   0.55977   0.56450   0.57185
 Alpha virt. eigenvalues --    0.58400   0.58677   0.59102   0.59688   0.60347
 Alpha virt. eigenvalues --    0.60873   0.61947   0.62693   0.63416   0.63959
 Alpha virt. eigenvalues --    0.64392   0.64509   0.65246   0.66509   0.67205
 Alpha virt. eigenvalues --    0.68962   0.69386   0.71086   0.72190   0.73887
 Alpha virt. eigenvalues --    0.75767   0.76496   0.79247   0.81453   0.81738
 Alpha virt. eigenvalues --    0.82425   0.83398   0.84454   0.84661   0.85270
 Alpha virt. eigenvalues --    0.86325   0.86470   0.86606   0.87151   0.87570
 Alpha virt. eigenvalues --    0.88005   0.88924   0.89284   0.90191   0.91675
 Alpha virt. eigenvalues --    0.92651   0.93072   0.93244   0.93895   0.95100
 Alpha virt. eigenvalues --    0.95787   0.96641   0.97588   0.98067   0.98624
 Alpha virt. eigenvalues --    0.99186   0.99541   1.00457   1.01113   1.01465
 Alpha virt. eigenvalues --    1.02511   1.03482   1.04124   1.06810   1.09543
 Alpha virt. eigenvalues --    1.12233   1.14857   1.16562   1.18111   1.19722
 Alpha virt. eigenvalues --    1.25228   1.28256   1.30449   1.36097   1.38134
 Alpha virt. eigenvalues --    1.44035   1.46068   1.47670   1.47859   1.49895
 Alpha virt. eigenvalues --    1.50417   1.51051   1.51609   1.52882   1.54063
 Alpha virt. eigenvalues --    1.54143   1.56477   1.59621   1.65151   1.68670
 Alpha virt. eigenvalues --    1.74095   1.79390   1.81815   1.82928   1.86915
 Alpha virt. eigenvalues --    1.87493   1.89949   1.90818   1.91941   1.92079
 Alpha virt. eigenvalues --    1.94311   1.94671   1.95833   1.96334   1.97010
 Alpha virt. eigenvalues --    1.98679   1.99101   1.99879   2.00005   2.00740
 Alpha virt. eigenvalues --    2.01189   2.01502   2.01965   2.02058   2.02809
 Alpha virt. eigenvalues --    2.04235   2.07334   2.09855   2.10964   2.11444
 Alpha virt. eigenvalues --    2.12103   2.16127   2.16983   2.17937   2.18317
 Alpha virt. eigenvalues --    2.19791   2.21659   2.24105   2.25941   2.26758
 Alpha virt. eigenvalues --    2.27232   2.28346   2.30160   2.30732   2.31315
 Alpha virt. eigenvalues --    2.31774   2.32184   2.32666   2.32870   2.33293
 Alpha virt. eigenvalues --    2.33831   2.35147   2.58027   2.58505   2.59181
 Alpha virt. eigenvalues --    2.60754   2.62646   2.65378   2.67810   2.70846
 Alpha virt. eigenvalues --    2.74022   2.77452   2.78374   2.81288   3.05709
 Alpha virt. eigenvalues --    3.41852  15.59441  15.62288  15.70251  43.15855
          Condensed to atoms (all electrons):
               1          2          3          4          5          6
     1  Au  18.543328   0.327302   0.333844  -0.030316   0.000878  -0.029856
     2  S    0.327302  15.677083  -0.000656   0.000028  -0.000053  -0.000003
     3  P    0.333844  -0.000656  13.592358   0.317095  -0.038549   0.317435
     4  C   -0.030316   0.000028   0.317095   5.230215   0.365563  -0.032619
     5  C    0.000878  -0.000053  -0.038549   0.365563   5.064486  -0.002167
     6  C   -0.029856  -0.000003   0.317435  -0.032619  -0.002167   5.227910
     7  C   -0.000661  -0.000057  -0.038755   0.001806   0.000076   0.364474
     8  C   -0.030035  -0.000021   0.312883  -0.028763   0.001799  -0.030540
     9  C    0.002473   0.000000  -0.026555  -0.004766   0.000088  -0.003704
    10  H    0.004289  -0.000002  -0.030640   0.358465  -0.032824  -0.004810
    11  H   -0.001984  -0.000020  -0.029841   0.370299  -0.027950   0.002145
    12  H   -0.000542   0.000001   0.004964  -0.028952   0.373845  -0.000023
    13  H    0.000306  -0.000005  -0.005720  -0.038240   0.381545   0.001737
    14  H    0.012423  -0.000093  -0.010240  -0.032548   0.383665  -0.000083
    15  H    0.003992  -0.000001  -0.030203  -0.002772  -0.000171   0.355509
    16  H   -0.003797  -0.000024  -0.033605  -0.001567   0.001254   0.373869
    17  H   -0.000450   0.000000   0.004950  -0.000062   0.000000  -0.028135
    18  H   -0.000645  -0.000002  -0.006689   0.000007  -0.000001  -0.038663
    19  H    0.010999  -0.000088  -0.009428   0.000023  -0.000006  -0.032893
    20  H   -0.001048  -0.000032  -0.032721  -0.002803   0.000012   0.002183
    21  H   -0.001036  -0.000032  -0.030481   0.002089  -0.000025  -0.002639
    22  H    0.000402   0.000000  -0.007427   0.002250  -0.000018  -0.000305
    23  H   -0.000088   0.000000   0.004509   0.000051   0.000000   0.000045
    24  H    0.000055   0.000000  -0.007877  -0.000274  -0.000007   0.001664
    25  C   -0.026311   0.285013  -0.000057   0.000000   0.000000   0.000000
    26  C   -0.002545  -0.076242  -0.000068   0.000000   0.000000   0.000000
    27  C    0.000337  -0.062624  -0.000002   0.000000   0.000000   0.000000
    28  C   -0.000652   0.006317   0.000011   0.000000   0.000000   0.000000
    29  H    0.009367  -0.015877  -0.000240   0.000001   0.000000   0.000002
    30  C   -0.000176   0.004910   0.000000   0.000000   0.000000   0.000000
    31  H    0.001738  -0.001333   0.000000   0.000000   0.000000   0.000000
    32  C    0.000005   0.000649   0.000000   0.000000   0.000000   0.000000
    33  H    0.000838  -0.000240   0.000001   0.000000   0.000000   0.000000
    34  H   -0.000029  -0.000210   0.000000   0.000000   0.000000   0.000000
    35  H   -0.000084   0.000018   0.000000   0.000000   0.000000   0.000000
               7          8          9         10         11         12
     1  Au  -0.000661  -0.030035   0.002473   0.004289  -0.001984  -0.000542
     2  S   -0.000057  -0.000021   0.000000  -0.000002  -0.000020   0.000001
     3  P   -0.038755   0.312883  -0.026555  -0.030640  -0.029841   0.004964
     4  C    0.001806  -0.028763  -0.004766   0.358465   0.370299  -0.028952
     5  C    0.000076   0.001799   0.000088  -0.032824  -0.027950   0.373845
     6  C    0.364474  -0.030540  -0.003704  -0.004810   0.002145  -0.000023
     7  C    5.067949  -0.001585  -0.000902   0.000001  -0.000029   0.000000
     8  C   -0.001585   5.238793   0.349992  -0.003191  -0.001175  -0.000058
     9  C   -0.000902   0.349992   5.060763   0.001437  -0.000221   0.000000
    10  H    0.000001  -0.003191   0.001437   0.563870  -0.029735  -0.003824
    11  H   -0.000029  -0.001175  -0.000221  -0.029735   0.531703  -0.005265
    12  H    0.000000  -0.000058   0.000000  -0.003824  -0.005265   0.553382
    13  H   -0.000018   0.000020  -0.000005  -0.003394   0.004491  -0.030283
    14  H   -0.000006   0.000019  -0.000002   0.003986  -0.003431  -0.026637
    15  H   -0.032721  -0.004870   0.002101   0.003551  -0.000002  -0.000006
    16  H   -0.027318   0.002299   0.000023  -0.000299   0.000028  -0.000058
    17  H    0.374572   0.000011  -0.000002  -0.000002   0.000001   0.000000
    18  H    0.381221   0.001954   0.000343   0.000001   0.000000   0.000000
    19  H    0.384113  -0.000263   0.000024   0.000000   0.000001   0.000000
    20  H    0.000050   0.375094  -0.032680  -0.000191   0.001886  -0.000003
    21  H    0.001490   0.372812  -0.033577  -0.000028   0.000039   0.000001
    22  H    0.000046  -0.036289   0.382369   0.003450   0.000384   0.000004
    23  H   -0.000003  -0.029454   0.377913  -0.000065  -0.000016   0.000000
    24  H    0.000466  -0.036152   0.382340   0.000072   0.000029   0.000000
    25  C    0.000000   0.000001   0.000000   0.000000   0.000000   0.000000
    26  C    0.000001  -0.000008   0.000000   0.000000   0.000000   0.000000
    27  C    0.000000   0.000000   0.000000   0.000000   0.000000   0.000000
    28  C    0.000000   0.000000   0.000000   0.000000   0.000000   0.000000
    29  H   -0.000008  -0.000019   0.000000   0.000000   0.000000   0.000000
    30  C    0.000000   0.000000   0.000000   0.000000   0.000000   0.000000
    31  H    0.000000   0.000000   0.000000   0.000000   0.000000   0.000000
    32  C    0.000000   0.000000   0.000000   0.000000   0.000000   0.000000
    33  H    0.000000   0.000000   0.000000   0.000000   0.000000   0.000000
    34  H    0.000000   0.000000   0.000000   0.000000   0.000000   0.000000
    35  H    0.000000   0.000000   0.000000   0.000000   0.000000   0.000000
              13         14         15         16         17         18
     1  Au   0.000306   0.012423   0.003992  -0.003797  -0.000450  -0.000645
     2  S   -0.000005  -0.000093  -0.000001  -0.000024   0.000000  -0.000002
     3  P   -0.005720  -0.010240  -0.030203  -0.033605   0.004950  -0.006689
     4  C   -0.038240  -0.032548  -0.002772  -0.001567  -0.000062   0.000007
     5  C    0.381545   0.383665  -0.000171   0.001254   0.000000  -0.000001
     6  C    0.001737  -0.000083   0.355509   0.373869  -0.028135  -0.038663
     7  C   -0.000018  -0.000006  -0.032721  -0.027318   0.374572   0.381221
     8  C    0.000020   0.000019  -0.004870   0.002299   0.000011   0.001954
     9  C   -0.000005  -0.000002   0.002101   0.000023  -0.000002   0.000343
    10  H   -0.003394   0.003986   0.003551  -0.000299  -0.000002   0.000001
    11  H    0.004491  -0.003431  -0.000002   0.000028   0.000001   0.000000
    12  H   -0.030283  -0.026637  -0.000006  -0.000058   0.000000   0.000000
    13  H    0.556076  -0.028863   0.000218   0.003008   0.000003   0.000001
    14  H   -0.028863   0.491873   0.000005  -0.000026   0.000000   0.000000
    15  H    0.000218   0.000005   0.568269  -0.030170  -0.003980  -0.003768
    16  H    0.003008  -0.000026  -0.030170   0.526627  -0.004895   0.004531
    17  H    0.000003   0.000000  -0.003980  -0.004895   0.550619  -0.030191
    18  H    0.000001   0.000000  -0.003768   0.004531  -0.030191   0.562325
    19  H    0.000002  -0.000001   0.004124  -0.003230  -0.026573  -0.028926
    20  H    0.000002  -0.000003  -0.000018  -0.000027   0.000001   0.000007
    21  H    0.000001  -0.000001  -0.000147   0.000012  -0.000044   0.001796
    22  H    0.000003   0.000000   0.000040  -0.000013   0.000000  -0.000007
    23  H    0.000000   0.000000  -0.000081   0.000001   0.000000  -0.000026
    24  H    0.000000   0.000000   0.002799   0.000015  -0.000013   0.001400
    25  C    0.000000   0.000000   0.000000   0.000000   0.000000   0.000000
    26  C    0.000000   0.000000   0.000000   0.000000   0.000000  -0.000001
    27  C    0.000000   0.000000   0.000000   0.000000   0.000000   0.000000
    28  C    0.000000   0.000000   0.000000   0.000000   0.000000   0.000000
    29  H    0.000000   0.000000   0.000000   0.000000   0.000000   0.000001
    30  C    0.000000   0.000000   0.000000   0.000000   0.000000   0.000000
    31  H    0.000000   0.000000   0.000000   0.000000   0.000000   0.000000
    32  C    0.000000   0.000000   0.000000   0.000000   0.000000   0.000000
    33  H    0.000000   0.000000   0.000000   0.000000   0.000000   0.000000
    34  H    0.000000   0.000000   0.000000   0.000000   0.000000   0.000000
    35  H    0.000000   0.000000   0.000000   0.000000   0.000000   0.000000
              19         20         21         22         23         24
     1  Au   0.010999  -0.001048  -0.001036   0.000402  -0.000088   0.000055
     2  S   -0.000088  -0.000032  -0.000032   0.000000   0.000000   0.000000
     3  P   -0.009428  -0.032721  -0.030481  -0.007427   0.004509  -0.007877
     4  C    0.000023  -0.002803   0.002089   0.002250   0.000051  -0.000274
     5  C   -0.000006   0.000012  -0.000025  -0.000018   0.000000  -0.000007
     6  C   -0.032893   0.002183  -0.002639  -0.000305   0.000045   0.001664
     7  C    0.384113   0.000050   0.001490   0.000046  -0.000003   0.000466
     8  C   -0.000263   0.375094   0.372812  -0.036289  -0.029454  -0.036152
     9  C    0.000024  -0.032680  -0.033577   0.382369   0.377913   0.382340
    10  H    0.000000  -0.000191  -0.000028   0.003450  -0.000065   0.000072
    11  H    0.000001   0.001886   0.000039   0.000384  -0.000016   0.000029
    12  H    0.000000  -0.000003   0.000001   0.000004   0.000000   0.000000
    13  H    0.000002   0.000002   0.000001   0.000003   0.000000   0.000000
    14  H   -0.000001  -0.000003  -0.000001   0.000000   0.000000   0.000000
    15  H    0.004124  -0.000018  -0.000147   0.000040  -0.000081   0.002799
    16  H   -0.003230  -0.000027   0.000012  -0.000013   0.000001   0.000015
    17  H   -0.026573   0.000001  -0.000044   0.000000   0.000000  -0.000013
    18  H   -0.028926   0.000007   0.001796  -0.000007  -0.000026   0.001400
    19  H    0.492663  -0.000009  -0.000100  -0.000002   0.000000  -0.000012
    20  H   -0.000009   0.521656  -0.024968  -0.002975  -0.004053   0.004361
    21  H   -0.000100  -0.024968   0.523010   0.004355  -0.004022  -0.003364
    22  H   -0.000002  -0.002975   0.004355   0.554237  -0.029495  -0.030673
    23  H    0.000000  -0.004053  -0.004022  -0.029495   0.546346  -0.029607
    24  H   -0.000012   0.004361  -0.003364  -0.030673  -0.029607   0.554961
    25  C   -0.000004   0.000000   0.000000   0.000000   0.000000   0.000000
    26  C   -0.000012  -0.000001  -0.000012   0.000000   0.000000   0.000000
    27  C    0.000000   0.000000   0.000000   0.000000   0.000000   0.000000
    28  C   -0.000001   0.000000  -0.000002   0.000000   0.000000   0.000000
    29  H   -0.000020  -0.000004   0.000116   0.000000   0.000000   0.000000
    30  C    0.000000   0.000000   0.000000   0.000000   0.000000   0.000000
    31  H    0.000000   0.000000   0.000000   0.000000   0.000000   0.000000
    32  C    0.000000   0.000000   0.000000   0.000000   0.000000   0.000000
    33  H    0.000000   0.000000   0.000000   0.000000   0.000000   0.000000
    34  H    0.000000   0.000000   0.000000   0.000000   0.000000   0.000000
    35  H    0.000000   0.000000   0.000000   0.000000   0.000000   0.000000
              25         26         27         28         29         30
     1  Au  -0.026311  -0.002545   0.000337  -0.000652   0.009367  -0.000176
     2  S    0.285013  -0.076242  -0.062624   0.006317  -0.015877   0.004910
     3  P   -0.000057  -0.000068  -0.000002   0.000011  -0.000240   0.000000
     4  C    0.000000   0.000000   0.000000   0.000000   0.000001   0.000000
     5  C    0.000000   0.000000   0.000000   0.000000   0.000000   0.000000
     6  C    0.000000   0.000000   0.000000   0.000000   0.000002   0.000000
     7  C    0.000000   0.000001   0.000000   0.000000  -0.000008   0.000000
     8  C    0.000001  -0.000008   0.000000   0.000000  -0.000019   0.000000
     9  C    0.000000   0.000000   0.000000   0.000000   0.000000   0.000000
    10  H    0.000000   0.000000   0.000000   0.000000   0.000000   0.000000
    11  H    0.000000   0.000000   0.000000   0.000000   0.000000   0.000000
    12  H    0.000000   0.000000   0.000000   0.000000   0.000000   0.000000
    13  H    0.000000   0.000000   0.000000   0.000000   0.000000   0.000000
    14  H    0.000000   0.000000   0.000000   0.000000   0.000000   0.000000
    15  H    0.000000   0.000000   0.000000   0.000000   0.000000   0.000000
    16  H    0.000000   0.000000   0.000000   0.000000   0.000000   0.000000
    17  H    0.000000   0.000000   0.000000   0.000000   0.000000   0.000000
    18  H    0.000000  -0.000001   0.000000   0.000000   0.000001   0.000000
    19  H   -0.000004  -0.000012   0.000000  -0.000001  -0.000020   0.000000
    20  H    0.000000  -0.000001   0.000000   0.000000  -0.000004   0.000000
    21  H    0.000000  -0.000012   0.000000  -0.000002   0.000116   0.000000
    22  H    0.000000   0.000000   0.000000   0.000000   0.000000   0.000000
    23  H    0.000000   0.000000   0.000000   0.000000   0.000000   0.000000
    24  H    0.000000   0.000000   0.000000   0.000000   0.000000   0.000000
    25  C    4.904850   0.516409   0.533915  -0.022981  -0.050366  -0.026806
    26  C    0.516409   4.962910  -0.023148   0.518728   0.360746  -0.044346
    27  C    0.533915  -0.023148   4.920212  -0.043997   0.004790   0.535131
    28  C   -0.022981   0.518728  -0.043997   4.868853  -0.047406  -0.027243
    29  H   -0.050366   0.360746   0.004790  -0.047406   0.595225   0.000697
    30  C   -0.026806  -0.044346   0.535131  -0.027243   0.000697   4.849726
    31  H   -0.047272   0.005530   0.362123   0.000442  -0.000188  -0.046006
    32  C   -0.037583  -0.027810  -0.028961   0.551634   0.004624   0.550985
    33  H    0.004556  -0.044042   0.000742   0.356423  -0.006756   0.004780
    34  H    0.004944   0.000680  -0.043786   0.004837   0.000015   0.358822
    35  H    0.000643   0.004823   0.004810  -0.044269  -0.000173  -0.043997
              31         32         33         34         35
     1  Au   0.001738   0.000005   0.000838  -0.000029  -0.000084
     2  S   -0.001333   0.000649  -0.000240  -0.000210   0.000018
     3  P    0.000000   0.000000   0.000001   0.000000   0.000000
     4  C    0.000000   0.000000   0.000000   0.000000   0.000000
     5  C    0.000000   0.000000   0.000000   0.000000   0.000000
     6  C    0.000000   0.000000   0.000000   0.000000   0.000000
     7  C    0.000000   0.000000   0.000000   0.000000   0.000000
     8  C    0.000000   0.000000   0.000000   0.000000   0.000000
     9  C    0.000000   0.000000   0.000000   0.000000   0.000000
    10  H    0.000000   0.000000   0.000000   0.000000   0.000000
    11  H    0.000000   0.000000   0.000000   0.000000   0.000000
    12  H    0.000000   0.000000   0.000000   0.000000   0.000000
    13  H    0.000000   0.000000   0.000000   0.000000   0.000000
    14  H    0.000000   0.000000   0.000000   0.000000   0.000000
    15  H    0.000000   0.000000   0.000000   0.000000   0.000000
    16  H    0.000000   0.000000   0.000000   0.000000   0.000000
    17  H    0.000000   0.000000   0.000000   0.000000   0.000000
    18  H    0.000000   0.000000   0.000000   0.000000   0.000000
    19  H    0.000000   0.000000   0.000000   0.000000   0.000000
    20  H    0.000000   0.000000   0.000000   0.000000   0.000000
    21  H    0.000000   0.000000   0.000000   0.000000   0.000000
    22  H    0.000000   0.000000   0.000000   0.000000   0.000000
    23  H    0.000000   0.000000   0.000000   0.000000   0.000000
    24  H    0.000000   0.000000   0.000000   0.000000   0.000000
    25  C   -0.047272  -0.037583   0.004556   0.004944   0.000643
    26  C    0.005530  -0.027810  -0.044042   0.000680   0.004823
    27  C    0.362123  -0.028961   0.000742  -0.043786   0.004810
    28  C    0.000442   0.551634   0.356423   0.004837  -0.044269
    29  H   -0.000188   0.004624  -0.006756   0.000015  -0.000173
    30  C   -0.046006   0.550985   0.004780   0.358822  -0.043997
    31  H    0.593868   0.004836   0.000016  -0.006579  -0.000174
    32  C    0.004836   4.852999  -0.044214  -0.045284   0.358728
    33  H    0.000016  -0.044214   0.621898  -0.000207  -0.006087
    34  H   -0.006579  -0.045284  -0.000207   0.614824  -0.005972
    35  H   -0.000174   0.358728  -0.006087  -0.005972   0.617612
 Mulliken charges:
               1
     1  Au  -0.122319
     2  S   -0.143706
     3  P    0.451703
     4  C   -0.444211
     5  C   -0.471440
     6  C   -0.440531
     7  C   -0.474201
     8  C   -0.453255
     9  C   -0.457452
    10  H    0.169882
    11  H    0.188665
    12  H    0.163453
    13  H    0.159116
    14  H    0.209962
    15  H    0.168301
    16  H    0.193361
    17  H    0.164193
    18  H    0.155332
    19  H    0.209614
    20  H    0.196282
    21  H    0.194757
    22  H    0.159664
    23  H    0.168045
    24  H    0.159819
    25  C   -0.038950
    26  C   -0.151593
    27  C   -0.159541
    28  C   -0.120694
    29  H    0.145472
    30  C   -0.116476
    31  H    0.133001
    32  C   -0.140608
    33  H    0.112293
    34  H    0.117944
    35  H    0.114121
 Sum of Mulliken charges =   0.00000
 Mulliken charges with hydrogens summed into heavy atoms:
               1
     1  Au  -0.122319
     2  S   -0.143706
     3  P    0.451703
     4  C   -0.085664
     5  C    0.061091
     6  C   -0.078869
     7  C    0.054937
     8  C   -0.062216
     9  C    0.030076
    25  C   -0.038950
    26  C   -0.006121
    27  C   -0.026540
    28  C   -0.008401
    30  C    0.001468
    32  C   -0.026487
 Electronic spatial extent (au):  <R**2>=           6905.5448
 Charge=              0.0000 electrons
 Dipole moment (field-independent basis, Debye):
    X=             -8.8461    Y=              3.4541    Z=             -0.3501  Tot=              9.5030
 Quadrupole moment (field-independent basis, Debye-Ang):
   XX=           -111.2649   YY=           -121.8400   ZZ=           -125.1701
   XY=              1.0923   XZ=              0.5512   YZ=             -0.1700
 Traceless Quadrupole moment (field-independent basis, Debye-Ang):
   XX=              8.1601   YY=             -2.4150   ZZ=             -5.7451
   XY=              1.0923   XZ=              0.5512   YZ=             -0.1700
 Octapole moment (field-independent basis, Debye-Ang**2):
  XXX=            -82.1102  YYY=            -44.9169  ZZZ=              2.9377  XYY=            -29.3470
  XXY=            -17.8017  XXZ=             -4.2445  XZZ=            -43.8548  YZZ=            -17.1711
  YYZ=             -4.2554  XYZ=             -1.5729
 Hexadecapole moment (field-independent basis, Debye-Ang**3):
 XXXX=          -6867.1303 YYYY=          -1572.6110 ZZZZ=           -653.6019 XXXY=             -5.4923
 XXXZ=              6.3366 YYYX=             36.2007 YYYZ=            -10.3257 ZZZX=             -0.5321
 ZZZY=              4.9129 XXYY=          -1412.9810 XXZZ=          -1364.2091 YYZZ=           -381.6001
 XXYZ=             -3.6524 YYXZ=              6.0944 ZZXY=            -15.3195
 N-N= 1.364921432044D+03 E-N=-5.855939502877D+03  KE= 1.247458873672D+03
   1 Symmetry operations used in ECPInt.
 ECPInt:  NShTT=    6328 NPrTT=   34272 LenC2=    5492 LenP2D=   18176.
 LDataN:  DoStor=T MaxTD1= 8 Len=  415
 Calling FoFJK, ICntrl=      2127 FMM=F ISym2X=0 I1Cent= 0 IOpClX= 0 NMat=1 NMatS=1 NMatT=0.
 Defaulting to unpruned grid for atomic number  79.
 Defaulting to unpruned grid for atomic number  79.
 Defaulting to unpruned grid for atomic number  79.
 Defaulting to unpruned grid for atomic number  79.
 Defaulting to unpruned grid for atomic number  79.
 Defaulting to unpruned grid for atomic number  79.
 Defaulting to unpruned grid for atomic number  79.
 Defaulting to unpruned grid for atomic number  79.
 ***** Axes restored to original set *****
 -------------------------------------------------------------------
 Center     Atomic                   Forces (Hartrees/Bohr)
 Number     Number              X              Y              Z
 -------------------------------------------------------------------
      1       79           0.004883912   -0.001273783   -0.000343479
      2       16          -0.006397456   -0.007884445    0.000960754
      3       15           0.011991292   -0.005349616    0.001252810
      4        6          -0.005188324    0.000911113   -0.003704451
      5        6          -0.000208661   -0.003652803    0.000492309
      6        6          -0.005990840   -0.000554085    0.002606600
      7        6           0.001543055    0.001961518    0.002659720
      8        6           0.001110754    0.003181797   -0.002609118
      9        6          -0.002001231    0.002927923   -0.001443128
     10        1          -0.001799506   -0.000809270   -0.000887568
     11        1          -0.000397542   -0.000839323   -0.000722593
     12        1          -0.000400077   -0.000820766    0.000034268
     13        1          -0.000094925   -0.000280615    0.000700490
     14        1          -0.000071969   -0.000220515    0.000122117
     15        1          -0.001366669    0.000612621    0.001613697
     16        1          -0.000014058   -0.000021008    0.000820180
     17        1           0.000092177    0.000553968    0.000731582
     18        1           0.000127025    0.000766043   -0.000018074
     19        1           0.000082018    0.000054229    0.000192273
     20        1           0.000419041    0.000831919   -0.000662810
     21        1           0.000242579    0.000706652   -0.000697678
     22        1          -0.000756918   -0.000155541   -0.000286141
     23        1          -0.001013260    0.000774261   -0.000371675
     24        1          -0.000510372    0.000313967    0.000401850
     25        6           0.001389861    0.004271756   -0.000422734
     26        6          -0.000435338    0.002278210   -0.000126845
     27        6           0.000996858   -0.003147081    0.000129534
     28        6          -0.001075685    0.002419569   -0.000192778
     29        1           0.000174701    0.000189491   -0.000014140
     30        6           0.001976816   -0.000352268    0.000046444
     31        1          -0.000291918    0.000051694   -0.000010011
     32        6           0.002011690    0.001385127   -0.000154852
     33        1           0.000033112    0.000801576   -0.000058647
     34        1           0.000498666   -0.000109587   -0.000001542
     35        1           0.000441191    0.000477270   -0.000036363
 -------------------------------------------------------------------
 Cartesian Forces:  Max     0.011991292 RMS     0.002231631

 GradGradGradGradGradGradGradGradGradGradGradGradGradGradGradGradGradGrad
 Berny optimization.
 FormGI is forming the generalized inverse of G from B-inverse, IUseBI=4.
 Internal  Forces:  Max     0.010603760 RMS     0.001932043
 Search for a local minimum.
 Step number   1 out of a maximum of  191
 All quantities printed in internal units (Hartrees-Bohrs-Radians)
 Mixed Optimization -- RFO/linear search
 Second derivative matrix not updated -- first step.
 ITU=  0
     Eigenvalues ---    0.00230   0.00230   0.00230   0.00416   0.00422
     Eigenvalues ---    0.00423   0.00744   0.00764   0.00766   0.00824
     Eigenvalues ---    0.01829   0.02068   0.02117   0.02131   0.02164
     Eigenvalues ---    0.02173   0.02181   0.02186   0.02190   0.03371
     Eigenvalues ---    0.03634   0.03655   0.04823   0.04942   0.04945
     Eigenvalues ---    0.05379   0.05460   0.05478   0.05521   0.05640
     Eigenvalues ---    0.05650   0.05677   0.05720   0.06550   0.08590
     Eigenvalues ---    0.08636   0.09112   0.12334   0.12367   0.12684
     Eigenvalues ---    0.15540   0.15654   0.16000   0.16000   0.16000
     Eigenvalues ---    0.16000   0.16000   0.16000   0.16000   0.16000
     Eigenvalues ---    0.16000   0.16000   0.16000   0.16000   0.16000
     Eigenvalues ---    0.16000   0.18689   0.20928   0.21942   0.21958
     Eigenvalues ---    0.21963   0.22000   0.22000   0.23471   0.23767
     Eigenvalues ---    0.23869   0.23881   0.25000   0.25000   0.29018
     Eigenvalues ---    0.29752   0.29793   0.29804   0.34089   0.34123
     Eigenvalues ---    0.34130   0.34144   0.34167   0.34219   0.34237
     Eigenvalues ---    0.34255   0.34291   0.34294   0.34319   0.34325
     Eigenvalues ---    0.34336   0.34336   0.34372   0.35174   0.35178
     Eigenvalues ---    0.35186   0.35209   0.35307   0.41826   0.42080
     Eigenvalues ---    0.45568   0.46041   0.46768   0.47049
 RFO step:  Lambda=-3.32809897D-03 EMin= 2.30000000D-03
 Linear search not attempted -- first point.
 Maximum step size (   0.300) exceeded in Quadratic search.
    -- Step size scaled by   0.926
 Iteration  1 RMS(Cart)=  0.19885700 RMS(Int)=  0.00904845
 Iteration  2 RMS(Cart)=  0.10167223 RMS(Int)=  0.00154897
 Iteration  3 RMS(Cart)=  0.00485162 RMS(Int)=  0.00046774
 Iteration  4 RMS(Cart)=  0.00000224 RMS(Int)=  0.00046774
 Iteration  5 RMS(Cart)=  0.00000000 RMS(Int)=  0.00046774
 Variable       Old X    -DE/DX   Delta X   Delta X   Delta X     New X
                                 (Linear)    (Quad)   (Total)
    R1        4.41980  -0.00073   0.00000  -0.00357  -0.00357   4.41623
    R2        4.34202   0.00426   0.00000   0.01855   0.01854   4.36055
    R3        3.33665   0.00990   0.00000   0.03123   0.03123   3.36789
    R4        3.45841   0.01057   0.00000   0.04045   0.04045   3.49885
    R5        3.45875   0.01060   0.00000   0.04058   0.04058   3.49933
    R6        3.46150   0.01043   0.00000   0.04008   0.04008   3.50158
    R7        2.88460   0.00505   0.00000   0.01555   0.01555   2.90015
    R8        2.07087   0.00128   0.00000   0.00343   0.00343   2.07430
    R9        2.07112   0.00067   0.00000   0.00179   0.00179   2.07291
   R10        2.06794   0.00074   0.00000   0.00198   0.00198   2.06992
   R11        2.06786   0.00069   0.00000   0.00183   0.00183   2.06969
   R12        2.06902   0.00002   0.00000   0.00005   0.00005   2.06907
   R13        2.88377   0.00504   0.00000   0.01550   0.01550   2.89928
   R14        2.07180   0.00126   0.00000   0.00339   0.00339   2.07519
   R15        2.06963   0.00045   0.00000   0.00120   0.00120   2.07083
   R16        2.06767   0.00072   0.00000   0.00192   0.00192   2.06959
   R17        2.06841   0.00068   0.00000   0.00182   0.00182   2.07024
   R18        2.06932   0.00009   0.00000   0.00023   0.00023   2.06956
   R19        2.88355   0.00563   0.00000   0.01730   0.01730   2.90086
   R20        2.07123   0.00052   0.00000   0.00139   0.00139   2.07261
   R21        2.07048   0.00036   0.00000   0.00097   0.00097   2.07145
   R22        2.06707   0.00072   0.00000   0.00192   0.00192   2.06899
   R23        2.06836   0.00079   0.00000   0.00211   0.00211   2.07047
   R24        2.06767   0.00063   0.00000   0.00167   0.00167   2.06935
   R25        2.64932   0.00454   0.00000   0.00929   0.00930   2.65862
   R26        2.65279   0.00310   0.00000   0.00635   0.00636   2.65914
   R27        2.63064   0.00291   0.00000   0.00574   0.00574   2.63637
   R28        2.05337  -0.00011   0.00000  -0.00029  -0.00029   2.05308
   R29        2.62884   0.00307   0.00000   0.00594   0.00594   2.63479
   R30        2.05375  -0.00011   0.00000  -0.00029  -0.00029   2.05346
   R31        2.63287   0.00280   0.00000   0.00548   0.00548   2.63835
[...]
 0052614,-0.00083262,0.00185078,-0.00204649,0.00351897,0.00004029,-0.00
 024614,0.00029818,0.00000506,-0.00000292,-0.00001703,-0.00000289,0.000
 01595,0.00000854,-0.00006650,0.00003801,-0.00002875,-0.00001053,-0.000
 00511,0.00000107,0.00014401,-0.00003061,-0.00000645,-0.00002198,-0.000
 03175,0.00003537,-0.00000230,0.00000377,0.00000407,0.00000915,0.000001
 99,0.00000726,0.00000596,-0.00000058,-0.00000093,-0.00000360,0.0000005
 2,0.00000383,0.00000784,-0.00000128,-0.00000856,-0.00001554,0.00001258
 ,0.00002231,0.00000579,-0.00000205,-0.00000314,0.00000017,0.00000238,0
 .00000211,-0.00000220,0.00000480,-0.00000271,0.00000116,-0.00000977,-0
 .00000162,0.00000050,0.00000437,0.00000491,-0.00000507,0.00000852,-0.0
 0000613,0.00000331,0.00000073,0.00000055,0.00001840,-0.00000949,0.0000
 0305,-0.00000475,0.00000052,0.00000013,0.02552863,0.00338455,-0.011299
 45,-0.00009780,0.00509700,-0.00493126,0.09085594,0.06452004,-0.1141270
 4,0.00343364,-0.02228640,0.00169361,-0.00048199,0.00028412,-0.00003333
 ,-0.28067996,0.06981623,0.34326016,-0.00021562,-0.00027666,-0.00011046
 ,0.00003361,0.00098406,-0.00150227,-0.00014219,0.00020110,0.00000420,0
 .00006098,-0.00003699,0.00000762,-0.00000572,-0.00000787,0.00000078,0.
 00001159,-0.00001694,0.00001304,0.00000578,0.00000535,-0.00000992,-0.0
 0000115,0.00000302,-0.00000157,-0.00000704,-0.00000569,-0.00000131,0.0
 0002454,0.00001551,0.00000855,-0.00001050,-0.00000363,-0.00000882,0.00
 000061,0.00000295,0.00000194,0.00000348,-0.00000127,-0.00000509,-0.000
 00439,-0.00000504,0.00000466,0.00000870,-0.00000578,-0.00001011,-0.000
 00605,0.00000023,0.00000090,0.00000497,-0.00000532,-0.00000479,0.00000
 176,-0.00000462,0.00000492,0.00000286,0.00001065,0.00001010,0.00000282
 ,0.00000705,-0.00000508,0.00000358,-0.00000411,-0.00000045,-0.00000140
 ,0.00000228,-0.00000212,0.00000255,-0.00000464,0.00000428,0.00000357,0
 .00000075,-0.00000200,0.00139530,0.02358584,0.00480478,-0.00156616,0.0
 0045240,0.00551332,-0.05191413,0.01405220,0.01373439,-0.00107978,-0.00
 020545,0.00054140,0.00019357,0.00142937,0.00032478,0.00508660,-0.02164
 431,-0.00526516,0.04909874,0.00009026,0.00009462,0.00018370,-0.0005777
 8,0.00104109,0.00080532,-0.00004603,-0.00005596,-0.00006900,-0.0000117
 9,0.00000899,-0.00000837,-0.00000073,0.00000465,0.00000376,0.00001400,
 0.00000083,0.00000472,-0.00000601,0.00000057,0.00000122,0.00000962,-0.
 00000205,-0.00000296,-0.00000159,0.00000198,0.00000545,-0.00000427,-0.
 00000283,0.00000090,0.00000550,0.00000269,0.00000461,0.00000517,0.0000
 0148,0.00000091,-0.00000127,-0.00000148,0.00000210,-0.00000030,-0.0000
 0469,-0.00000392,0.00000463,-0.00000080,-0.00000166,0.00000056,0.00000
 110,0.00000197,0.00000245,0.00000164,0.00000007,-0.00000394,0.00000322
 ,-0.00000135,-0.00000014,-0.00000726,0.00000388,-0.00000172,-0.0000061
 8,0.00000176,-0.00000331,0.00000942,-0.00000060,0.00000458,0.00000054,
 0.00000100,0.00000028,-0.00000176,-0.00000077,-0.00000149,0.00000047,0
 .00000003,-0.00134839,-0.00809765,-0.00088852,0.00117674,0.00124101,-0
 .00153473,0.01604481,-0.32685631,-0.06046969,-0.00004260,0.00071824,0.
 00014764,0.00011224,-0.00031937,-0.00010600,0.00328456,-0.01506418,-0.
 00517200,-0.01548178,0.34719669,0.00005068,-0.00002161,0.00031346,-0.0
 0140673,-0.00011187,-0.00168848,-0.00001169,-0.00000668,-0.00007721,-0
 .00007118,0.00005227,0.00000416,0.00000784,0.00000112,-0.00000777,-0.0
 0002025,0.00000865,-0.00002810,-0.00000147,-0.00000466,0.00000527,-0.0
 0008958,0.00000402,0.00000621,0.00002411,0.00002800,-0.00002376,-0.000
 02173,-0.00002321,-0.00001784,0.00000220,-0.00000032,-0.00000187,-0.00
 000592,-0.00000422,0.00000014,0.00000060,-0.00000036,-0.00000056,0.000
 00012,0.00000476,0.00000592,-0.00001060,0.00000494,0.00001471,0.000003
 06,0.00000248,0.00000033,-0.00000141,0.00000414,0.00000256,-0.00000297
 ,0.00000283,-0.00000420,-0.00000361,-0.00000527,-0.00000433,-0.0000035
 3,-0.00000271,-0.00000318,-0.00000311,0.00000095,0.00000384,-0.0000007
 8,-0.00000335,0.00000271,-0.00001525,0.00001087,-0.00000619,0.00000107
 ,-0.00000340,0.00000146,0.00095337,-0.01856069,-0.00125482,0.00556488,
 -0.00076612,0.00159623,0.01369617,-0.05934348,-0.05564400,0.00020226,0
 .00019504,-0.00037562,0.00008852,-0.00107154,0.00008501,-0.00106890,0.
 01297508,0.00550797,-0.01991316,0.06511832,0.05050705,0.00016607,-0.00
 055563,-0.00019516,-0.00197415,-0.00188278,0.00023339,0.00049589,-0.00
 001155,0.00015267,-0.00004288,0.00003541,0.00000717,0.00001896,-0.0000
 1826,-0.00000978,-0.00007676,0.00002895,-0.00005166,-0.00000788,-0.000
 02163,0.00001205,-0.00014612,0.00000909,-0.00001366,0.00004082,0.00004
 579,-0.00004510,-0.00002659,-0.00001109,-0.00000954,0.00001015,-0.0000
 0428,0.00000859,-0.00001833,-0.00000320,-0.00000617,-0.00000505,0.0000
 0511,0.00000254,0.00000396,0.00003375,0.00000213,-0.00002937,0.0000143
 2,0.00003249,0.00001340,0.00000375,-0.00000367,-0.00001036,0.00001034,
 0.00000831,-0.00000406,0.00000737,-0.00001111,0.00000025,-0.00001744,-
 0.00002149,-0.00001179,-0.00000753,-0.00000384,-0.00001669,-0.00000818
 ,0.00001638,-0.00000061,-0.00000420,0.00000335,-0.00002741,0.00001773,
 -0.00001367,-0.00000012,-0.00000621,0.00000600,-0.01580119,0.02709066,
 0.01114050,-0.03500881,-0.03329407,0.02607465,0.02918009,-0.01558464,-
 0.01827574,-0.21959611,0.07410360,0.12803695,0.00135582,-0.00315615,0.
 00380516,-0.10549962,-0.01888312,0.03017447,-0.00036859,-0.00363089,0.
 00492131,0.51888838,0.00030107,-0.00045302,-0.00032384,-0.00139395,0.0
 0050607,0.00204352,-0.00003925,-0.00001910,0.00024710,-0.00008839,0.00
 009114,-0.00001518,0.00001329,0.00001649,-0.00000221,-0.00018873,0.000
 09026,-0.00013983,-0.00000848,-0.00003176,0.00000854,-0.00011372,-0.00
 003056,0.00000149,0.00004478,0.00004752,-0.00002712,-0.00003397,-0.000
 03968,-0.00002801,0.00000750,-0.00000211,0.00000016,-0.00000228,-0.000
 00870,-0.00000090,0.00000293,0.00000277,0.00000344,0.00000206,-0.00000
 005,0.00000174,-0.00005649,0.00002893,0.00008702,0.00001173,-0.0000036
 7,-0.00000802,-0.00000393,0.00001296,0.00000938,-0.00000914,0.00001516
 ,-0.00001041,0.00000407,-0.00001504,-0.00001238,-0.00000867,-0.0000122
 1,-0.00000821,-0.00000510,0.00001606,0.00001596,0.00000532,-0.00000520
 ,0.00000763,-0.00002629,0.00002039,-0.00001729,-0.00000189,-0.00000912
 ,0.00000349,0.02638055,-0.03996739,-0.02512617,0.00741893,0.05803767,0
 .00331596,-0.05649873,-0.04246738,0.03205202,0.02006222,-0.15013029,-0
 .02909005,-0.00430100,-0.00214833,0.00144793,0.03541642,-0.33095666,-0
 .06691186,-0.00272138,0.00016789,0.00052121,0.07257979,0.69183709,-0.0
 0008048,0.00013243,0.00010301,0.00064862,0.00165473,-0.00048386,-0.000
 38985,0.00013070,-0.00010206,0.00003983,-0.00003168,-0.00000208,-0.000
 01641,0.00001419,0.00000352,0.00002268,-0.00001695,0.00002668,-0.00000
 299,0.00001247,-0.00001069,0.00008243,-0.00001922,0.00000868,-0.000023
 59,-0.00002598,0.00002810,0.00002080,0.00000950,0.00000829,-0.00000749
 ,0.00000223,-0.00000378,0.00001305,-0.00000159,0.00000617,-0.00000043,
 -0.00000348,-0.00000219,0.00000200,-0.00002558,-0.00000465,0.00001407,
 -0.00000227,-0.00001419,-0.00000931,0.00000079,0.00000486,0.00000609,-
 0.00000469,-0.00000245,0.00000233,-0.00000672,0.00000563,0.00000514,0.
 00001097,0.00001119,0.00001368,0.00001429,0.00000714,0.00001757,0.0000
 0619,-0.00001996,-0.00000039,0.00000236,-0.00000383,0.00002112,-0.0000
 1434,0.00000849,-0.00000391,0.00000494,-0.00000044,0.01070150,-0.02492
 875,-0.01897577,0.03222041,0.03228477,-0.01109944,-0.02481705,0.003245
 08,0.02609680,0.11909146,-0.06834958,-0.15582558,0.00374809,0.00073095
 ,0.00446999,0.03923777,-0.02809565,-0.09144034,0.00486223,0.00150993,0
 .00364910,-0.27382215,0.03634391,0.32840572,0.00012203,0.00007018,0.00
 002828,-0.00016609,-0.00085011,-0.00004363,0.00007110,-0.00010784,0.00
 002644,-0.00003451,0.00002996,-0.00000938,0.00000782,0.00000136,0.0000
 0389,-0.00001259,0.00001775,-0.00002040,-0.00000511,-0.00000889,0.0000
 0929,-0.00003497,-0.00000717,-0.00001045,0.00001048,0.00001883,-0.0000
 0743,-0.00001151,-0.00000982,-0.00000721,0.00000282,-0.00000076,0.0000
 0066,-0.00000093,0.00000254,-0.00000114,-0.00000050,-0.00000010,0.0000
 0005,0.00000005,0.00000301,0.00000063,-0.00000561,0.00000412,0.0000120
 9,0.00000663,0.00000212,-0.00000268,0.00000254,0.00000524,-0.00000018,
 -0.00000988,0.00000931,-0.00000702,-0.00000199,-0.00001367,0.00000141,
 -0.00000447,-0.00000812,-0.00000318,-0.00001197,0.00000750,0.00001027,
 0.00000659,0.00000034,0.00000373,-0.00001059,0.00000472,-0.00000634,0.
 00000009,-0.00000334,0.00000008,0.00022594,-0.00251581,0.00495860,0.00
 486074,-0.02183358,-0.00558850,-0.00089092,-0.00030458,0.00036810,-0.0
 5278868,0.01627041,0.01574142,-0.00082518,0.00078501,-0.00228677,-0.00
 122055,0.00018407,0.00578623,-0.00023793,0.00011806,-0.00064034,0.0025
 5522,0.02441618,0.00370359,0.04886211,0.00020475,-0.00005075,0.0000426
 2,-0.00028675,-0.00069658,-0.00005472,0.00022678,-0.00012106,0.0000537
 9,-0.00006452,0.00005289,-0.00000446,0.00001485,-0.00000138,-0.0000024
 6,-0.00005660,0.00003298,-0.00004963,-0.00000809,-0.00001819,0.0000153
 4,-0.00009252,-0.00000363,-0.00001085,0.00002966,0.00003214,-0.0000211
 3,-0.00002744,-0.00001951,-0.00001445,0.00000944,-0.00000010,0.0000064
 7,-0.00000618,-0.00000172,-0.00000364,-0.00000196,0.00000242,0.0000034
 1,0.00000052,0.00001334,0.00000023,-0.00002246,0.00001343,0.00003117,0
 .00001066,0.00000330,-0.00000487,-0.00000603,0.00000954,0.00000692,-0.
 00000734,0.00001027,-0.00001171,-0.00000059,-0.00001807,-0.00001300,-0
 .00000322,-0.00001133,0.00000250,-0.00000856,0.00000096,0.00001217,0.0
 0000365,-0.00000189,0.00000449,-0.00002057,0.00001407,-0.00001368,-0.0
 0000375,-0.00000480,0.00000397,-0.00323243,0.00016623,0.00124961,0.003
 57481,-0.01623769,-0.00582142,-0.00031288,0.00060720,0.00037957,0.0166
 2004,-0.32176127,-0.05899333,0.00013297,0.00088968,0.00071510,0.001462
 74,0.00150830,-0.00197671,0.00011784,-0.00009530,0.00009151,-0.0013007
 5,-0.00700313,-0.00058537,-0.01748664,0.34235984,-0.00000009,0.0000481
 7,-0.00003809,0.00011946,0.00043340,0.00006321,0.00000566,-0.00004441,
 0.00003552,-0.00000599,0.00001193,-0.00000929,0.00000275,-0.00000002,0
 .00000302,-0.00000503,0.00001157,-0.00000617,0.00000922,-0.00000657,0.
 00000357,-0.00000492,0.00000227,-0.00000473,0.00000285,0.00000423,-0.0
 0000168,-0.00000345,-0.00000290,-0.00000097,0.00000008,-0.00000297,-0.
 00000135,-0.00000026,0.00000147,-0.00000074,0.00000048,0.00000059,-0.0
 0000092,-0.00000040,0.00000286,-0.00000006,-0.00000402,-0.00000309,-0.
 00000002,0.00000320,-0.00000169,-0.00000319,0.00000086,-0.00000044,-0.
 00000191,0.00000133,0.00000196,0.00000149,-0.00000116,0.00000622,0.000
 00015,-0.00000561,-0.00000921,-0.00000692,-0.00000611,0.00000111,0.000
 01503,0.00000261,0.00000042,0.00000129,-0.00000662,0.00000457,-0.00000
 354,0.00000355,-0.00000197,-0.00000149,0.00475774,0.00080476,0.0039416
 9,-0.00137965,0.01281716,0.00560406,0.00043140,0.00036051,-0.00056741,
 0.01609908,-0.05912951,-0.05641875,-0.00248013,0.00028580,-0.00220446,
 0.00595394,-0.00112416,0.00219144,-0.00063032,0.00008512,-0.00067709,-
 0.00074149,-0.01897146,-0.00034369,-0.02009195,0.06469980,0.05035033,0
 .00006049,-0.00012935,0.00016398,-0.00069065,0.00024351,0.00024768,0.0
 0018058,-0.00004043,0.00000635,-0.00005708,0.00004145,0.00000545,0.000
 00466,0.00000063,-0.00001111,-0.00004486,0.00001717,-0.00003257,0.0000
 0415,-0.00000982,0.00000595,-0.00007719,0.00000382,0.00000540,0.000024
 50,0.00002130,-0.00001799,-0.00002290,-0.00002005,-0.00001298,0.000004
 69,0.00000064,0.00000232,-0.00000961,-0.00000710,-0.00000213,0.0000020
 8,0.00000217,0.00000137,0.00000255,0.00001235,0.00000525,-0.00001919,0
 .00000814,0.00001832,0.00000769,-0.00000154,-0.00000159,-0.00000629,0.
 00000353,0.00000500,0.00000192,0.00000189,-0.00000307,-0.00000162,-0.0
 0000235,-0.00001184,-0.00000055,-0.00000380,0.00000356,0.00000101,-0.0
 0000699,0.00000321,-0.00000499,-0.00000473,0.00000148,-0.00001322,0.00
 001285,-0.00000640,-0.00000077,-0.00000249,0.00000184,0.00125417,-0.00
 376420,0.00380028,0.00009149,-0.00066979,-0.00041588,-0.01218284,0.009
 61707,0.01227056,0.00348446,-0.00012853,0.00238485,-0.00043066,0.00017
 947,-0.00049510,-0.20003441,0.06888240,0.12981777,-0.00064829,0.000161
 66,-0.00236993,0.00163987,-0.00083174,0.00040155,0.00010299,-0.0001166
 2,0.00018150,0.20811006,-0.00003918,-0.00006181,0.00015400,-0.00066405
 ,0.00010647,0.00032405,0.00004208,-0.00000123,-0.00004402,-0.00000851,
 0.00000570,0.00000086,0.00000066,-0.00000048,-0.00000097,0.00000507,-0
 .00000194,-0.00000088,-0.00000264,-0.00000079,0.00000157,-0.00002892,0
 .00000175,-0.00000319,0.00000537,0.00001028,-0.00000475,-0.00000308,-0
 .00000281,-0.00000116,0.00000066,0.00000159,0.00000091,-0.00000094,0.0
 0000013,-0.00000014,0.00000055,-0.00000074,0.00000008,-0.00000005,0.00
 000104,0.00000161,0.00000066,0.00000098,0.00000052,0.00000140,0.000001
 36,0.00000082,0.00000040,0.00000147,0.00000034,-0.00000303,0.00000195,
 -0.00000209,-0.00000031,-0.00000532,0.00000021,-0.00000132,-0.00000287
 ,0.00000095,-0.00000210,0.00000198,0.00000204,0.00000158,-0.00000006,0
 .00000052,-0.00000431,0.00000129,-0.00000210,-0.00000065,-0.00000046,0
 .00000059,-0.00306857,-0.00175179,0.00071497,-0.00063414,-0.00093530,0
 .00037868,-0.01575125,0.01084993,0.01285394,-0.00134519,-0.00571141,-0
 .00099524,0.00017155,0.00016468,0.00006530,0.06880063,-0.09368341,-0.0
 5888654,0.00073372,0.00084794,0.00026821,0.02468737,-0.00536479,-0.019
 03509,0.00130174,-0.00047351,-0.00107845,-0.07415426,0.09496667,-0.000
 04679,0.00008834,-0.00006881,0.00051759,-0.00002728,-0.00026621,-0.000
 15990,0.00001202,-0.00001344,0.00002570,-0.00001885,-0.00000618,-0.000
 00430,0.00000275,0.00000823,0.00003008,-0.00000783,0.00002215,-0.00000
 014,0.00000691,-0.00000247,0.00005879,-0.00000313,0.00000186,-0.000016
 83,-0.00001541,0.00001247,0.00001332,0.00000916,0.00000668,-0.00000463
 ,-0.00000098,-0.00000332,0.00000715,0.00000473,0.00000284,-0.00000086,
 -0.00000173,-0.00000287,-0.00000051,-0.00001093,-0.00000293,0.00001331
 ,-0.00000709,-0.00001264,-0.00000559,0.00000038,0.00000013,0.00000500,
 -0.00000353,-0.00000517,-0.00000132,-0.00000059,0.00000262,0.00000006,
 0.00000368,0.00000916,-0.00000144,0.00000273,-0.00000581,-0.00000085,0
 .00000641,-0.00000132,0.00000310,0.00000314,0.00000001,0.00000838,-0.0
 0000759,0.00000523,0.00000264,0.00000089,-0.00000306,0.00381340,0.0010
 1952,0.00489678,-0.00036476,0.00038333,-0.00003645,0.00808914,-0.00569
 514,-0.00424488,0.00230417,-0.00184646,0.00480104,-0.00051730,0.000096
 06,-0.00074859,0.12990355,-0.05909114,-0.13858184,-0.00231238,0.000720
 90,-0.00227689,0.00427347,-0.00034590,-0.00084206,0.00040545,-0.000041
 44,0.00009945,-0.14382049,0.06450513,0.13939276,0.00005311,-0.00003952
 ,0.00001905,-0.00019778,-0.00010229,-0.00046349,0.00010658,-0.00003826
 ,0.00003439,-0.00003309,0.00002888,0.00000013,0.00000591,-0.00000107,-
 0.00000495,-0.00003398,0.00001622,-0.00002624,0.00000771,-0.00001023,0
 .00000662,-0.00004987,0.00000607,0.00000074,0.00001643,0.00001203,-0.0
 0001221,-0.00001497,-0.00001179,-0.00000830,0.00000331,-0.00000194,0.0
 0000113,-0.00000527,-0.00000335,-0.00000208,0.00000104,0.00000182,0.00
 000125,0.00000009,0.00000834,0.00000232,-0.00001530,0.00000426,0.00001
 312,0.00000618,-0.00000087,-0.00000296,-0.00000526,0.00000219,0.000003
 48,0.00000236,0.00000154,-0.00000261,-0.00000023,0.00000145,-0.0000093
 5,-0.00000119,-0.00000647,0.00000107,0.00000106,-0.00000670,0.00000770
 ,-0.00000255,-0.00000202,0.00000139,-0.00001163,0.00001095,-0.00000676
 ,-0.00000012,-0.00000232,0.00000119,-0.00014116,0.00092710,-0.00020470
 ,0.00016522,0.00273368,0.00528349,0.00303885,0.00022128,0.00278251,-0.
 01205602,-0.01706877,0.00698648,-0.00054857,-0.00090999,0.00056115,0.0
 0429132,0.00313248,-0.00154753,0.00026335,0.00012893,0.00014596,-0.175
 69640,-0.12033368,0.08429805,-0.00056320,0.00065718,-0.00220853,-0.000
 73225,-0.00004096,-0.00221620,0.18214630,0.00006887,-0.00001201,0.0000
 4490,-0.00016066,0.00016655,0.00017382,0.00009464,-0.00003669,0.000012
 00,-0.00002841,0.00002065,0.00000172,0.00000423,0.00000021,-0.00000464
 ,-0.00002369,0.00000981,-0.00001763,-0.00000071,-0.00000513,0.00000284
 ,-0.00003364,0.00000124,0.00000158,0.00001192,0.00000917,-0.00000783,-
 0.00001263,-0.00000902,-0.00000639,0.00000449,0.00000026,0.00000288,-0
 .00000387,-0.00000344,-0.00000168,0.00000006,0.00000144,0.00000208,0.0
 0000074,0.00000638,0.00000091,-0.00001033,0.00000516,0.00001060,0.0000
 0409,-0.00000058,-0.00000097,-0.00000345,0.00000258,0.00000372,0.00000
 107,0.00000114,-0.00000198,-0.00000083,-0.00000255,-0.00000659,0.00000
 030,-0.00000268,0.00000341,0.00000027,-0.00000317,0.00000065,-0.000002
 17,-0.00000257,0.00000072,-0.00000587,0.00000643,-0.00000361,-0.000001
 47,-0.00000093,0.00000163,0.00090865,-0.00044483,-0.00065743,0.0013357
 5,0.00001898,-0.00204841,0.00157876,-0.00479675,-0.00293695,0.00875533
 ,0.01066337,-0.00481752,0.00042509,0.00041644,-0.00033079,-0.02272984,
 -0.01463268,0.01389746,-0.00117284,-0.00082924,0.00063510,-0.12027143,
 -0.17222221,0.06503650,-0.00010200,0.00080335,0.00079293,0.00068375,0.
 00103349,0.00025895,0.13068585,0.17983784,-0.00002941,-0.00005718,0.00
 001645,-0.00027237,0.00017707,-0.00048636,-0.00011118,0.00004794,-0.00
 002178,0.00001133,-0.00000645,-0.00000273,-0.00000165,0.00000151,0.000
 00424,0.00001190,-0.00000586,0.00000521,-0.00000140,0.00000472,-0.0000
 0455,0.00000428,-0.00000032,-0.00000118,-0.00000426,0.00000059,0.00000
 096,0.00000687,0.00000316,0.00000216,-0.00000356,-0.00000108,-0.000003
 48,0.00000364,0.00000207,0.00000176,0.00000074,-0.00000120,-0.00000214
 ,-0.00000102,-0.00000735,0.00000022,0.00000526,-0.00000285,-0.00000319
 ,-0.00000214,0.00000010,0.00000053,0.00000527,-0.00000124,-0.00000310,
 -0.00000194,0.00000056,0.00000183,-0.00000120,-0.00000048,0.00000826,-
 0.00000132,-0.00000078,-0.00000421,-0.00000282,0.00000601,0.00000106,0
 .00000213,0.00000069,0.00000042,0.00000064,-0.00000180,0.00000228,0.00
 000250,0.00000008,-0.00000211,-0.00028379,-0.00053966,-0.00057628,0.00
 523194,-0.00286347,0.00265152,0.00278661,-0.00216323,0.00455352,0.0109
 8018,0.01375652,-0.00435537,0.00078933,0.00059703,-0.00008600,-0.00547
 878,-0.00457123,0.00475772,-0.00005685,-0.00034372,0.00038577,0.084312
 66,0.06492833,-0.08366634,-0.00233365,0.00030420,-0.00201779,-0.002132
 60,0.00077931,-0.00213646,-0.09343532,-0.07004198,0.08097916\\0.000001
 90,0.00000245,0.00000020,-0.00000063,-0.00000351,0.00000261,0.00000081
 ,0.00000290,0.00000877,-0.00000150,-0.00000584,0.00000117,0.00000107,0
 .00000007,0.00000097,0.00000169,-0.00000304,-0.00000427,0.00000135,0.0
 0000373,0.00000332,0.00000097,-0.00000180,-0.00000415,-0.00000085,-0.0
 0000003,-0.00000120,-0.00000097,0.00000030,0.00000142,-0.00000085,0.00
 000079,-0.00000002,-0.00000050,0.00000050,0.00000224,-0.00000024,0.000
 00002,0.00000281,-0.00000019,0.00000045,0.00000306,-0.00000194,0.00000
 321,0.00000345,-0.00000130,0.00000004,-0.00000068,0.00000041,0.0000020
 5,-0.00000105,0.00000011,0.00000005,-0.00000520,0.00000020,0.00000245,
 -0.00000079,-0.00000080,-0.00000200,0.00000012,-0.00000036,0.00000232,
 -0.00000062,0.00000033,-0.00000118,-0.00000098,0.00000029,-0.00000097,
 -0.00000110,0.00000005,-0.00000105,-0.00000101,0.00000410,0.00000263,-
 0.00000099,0.00000011,0.00000197,-0.00000148,-0.00000213,-0.00000074,0
 .00000092,-0.00000227,-0.00000066,0.00000074,-0.00000091,0.00000018,-0
 .00000063,0.00000046,0.00000097,-0.00000190,0.00000040,-0.00000067,0.0
 0000100,0.00000155,-0.00000266,-0.00000255,-0.00000017,-0.00000012,-0.
 00000215,-0.00000009,-0.00000174,-0.00000007,-0.00000012,-0.00000108,-
 0.00000199\\\@


 WHEN HAVING A MEETING OF THE MINDS,
 MAKE SURE YOU HAVE THE EQUIPMENT FOR IT.
 Job cpu time:       0 days  0 hours 50 minutes 20.7 seconds.
 File lengths (MBytes):  RWF=    368 Int=      0 D2E=      0 Chk=      8 Scr=      1
 Normal termination of Gaussian 09 at Mon Apr 24 09:40:20 2023.
