 Entering Gaussian System, Link 0=g09
 Input=AF20-helio.com
 Output=AF20-helio.log
 Initial command:
 /home/scr/programs/g09/l1.exe "/home/scr/guest2/Gau-13015.inp" -scrdir="/home/scr/guest2/"
 Entering Link 1 = /home/scr/programs/g09/l1.exe PID=     13016.
  
 Copyright (c) 1988,1990,1992,1993,1995,1998,2003,2009,2013,
            Gaussian, Inc.  All Rights Reserved.
  
 This is part of the Gaussian(R) 09 program.  It is based on
 the Gaussian(R) 03 system (copyright 2003, Gaussian, Inc.),
 the Gaussian(R) 98 system (copyright 1998, Gaussian, Inc.),
 the Gaussian(R) 94 system (copyright 1995, Gaussian, Inc.),
 the Gaussian 92(TM) system (copyright 1992, Gaussian, Inc.),
 the Gaussian 90(TM) system (copyright 1990, Gaussian, Inc.),
 the Gaussian 88(TM) system (copyright 1988, Gaussian, Inc.),
 the Gaussian 86(TM) system (copyright 1986, Carnegie Mellon
 University), and the Gaussian 82(TM) system (copyright 1983,
 Carnegie Mellon University). Gaussian is a federally registered
 trademark of Gaussian, Inc.
  
 This software contains proprietary and confidential information,
 including trade secrets, belonging to Gaussian, Inc.
  
 This software is provided under written license and may be
 used, copied, transmitted, or stored only in accord with that
 written license.
  
 The following legend is applicable only to US Government
 contracts under FAR:
  
                    RESTRICTED RIGHTS LEGEND
  
 Use, reproduction and disclosure by the US Government is
 subject to restrictions as set forth in subparagraphs (a)
 and (c) of the Commercial Computer Software - Restricted
 Rights clause in FAR 52.227-19.
  
 Gaussian, Inc.
 340 Quinnipiac St., Bldg. 40, Wallingford CT 06492
  
  
 ---------------------------------------------------------------
 Warning -- This program may not be used in any manner that
 competes with the business of Gaussian, Inc. or will provide
 assistance to any competitor of Gaussian, Inc.  The licensee
 of this program is prohibited from giving any competitor of
 Gaussian, Inc. access to this program.  By using this program,
 the user acknowledges that Gaussian, Inc. is engaged in the
 business of creating and licensing software in the field of
 computational chemistry and represents and warrants to the
 licensee that it is not a competitor of Gaussian, Inc. and that
 it will not use this program in any manner prohibited above.
 ---------------------------------------------------------------
  

 Cite this work as:
 Gaussian 09, Revision D.01,
 M. J. Frisch, G. W. Trucks, H. B. Schlegel, G. E. Scuseria, 
 M. A. Robb, J. R. Cheeseman, G. Scalmani, V. Barone, B. Mennucci, 
 G. A. Petersson, H. Nakatsuji, M. Caricato, X. Li, H. P. Hratchian, 
 A. F. Izmaylov, J. Bloino, G. Zheng, J. L. Sonnenberg, M. Hada, 
 M. Ehara, K. Toyota, R. Fukuda, J. Hasegawa, M. Ishida, T. Nakajima, 
 Y. Honda, O. Kitao, H. Nakai, T. Vreven, J. A. Montgomery, Jr., 
 J. E. Peralta, F. Ogliaro, M. Bearpark, J. J. Heyd, E. Brothers, 
 K. N. Kudin, V. N. Staroverov, T. Keith, R. Kobayashi, J. Normand, 
 K. Raghavachari, A. Rendell, J. C. Burant, S. S. Iyengar, J. Tomasi, 
 M. Cossi, N. Rega, J. M. Millam, M. Klene, J. E. Knox, J. B. Cross, 
 V. Bakken, C. Adamo, J. Jaramillo, R. Gomperts, R. E. Stratmann, 
 O. Yazyev, A. J. Austin, R. Cammi, C. Pomelli, J. W. Ochterski, 
 R. L. Martin, K. Morokuma, V. G. Zakrzewski, G. A. Voth, 
 P. Salvador, J. J. Dannenberg, S. Dapprich, A. D. Daniels, 
 O. Farkas, J. B. Foresman, J. V. Ortiz, J. Cioslowski, 
 and D. J. Fox, Gaussian, Inc., Wallingford CT, 2013.
 
 ******************************************
 Gaussian 09:  EM64L-G09RevD.01 24-Apr-2013
                 2-May-2023 
 ******************************************
 %mem=30000MB
 %nprocshared=8
 Will use up to    8 processors via shared memory.
 ----------------------------------------
 # opt freq=noraman b3lyp/gen pseudo=read
 ----------------------------------------
 1/14=-1,18=20,19=15,26=3,38=1/1,3;
 2/9=110,12=2,17=6,18=5,40=1/2;
 3/5=7,11=2,16=1,17=8,25=1,30=1,71=1,74=-5/1,2,3;
 4//1;
 5/5=2,38=5/2;
 6/7=2,8=2,9=2,10=2,28=1/1;
 7//1,2,3,16;
 1/14=-1,18=20,19=15,26=3/3(2);
 2/9=110/2;
 99//99;
 2/9=110/2;
 3/5=7,6=1,11=2,16=1,17=8,25=1,30=1,71=1,74=-5,82=7/1,2,3;
 4/5=5,16=3,69=1/1;
 5/5=2,38=5/2;
 7//1,2,3,16;
 1/14=-1,18=20,19=15,26=3/3(-5);
 2/9=110/2;
 6/7=2,8=2,9=2,10=2,19=2,28=1/1;
 99/9=1/99;
 --
 af
 --
 Symbolic Z-matrix:
 Charge =  0 Multiplicity = 1
 Au                   -0.32663  -0.47946   0.0324 
 S                     1.84872  -1.3195    0.21485 
 P                    -2.50639   0.2221   -0.13688 
 C                    -3.6072   -1.01892  -0.90898 
 C                    -3.54076  -2.3925   -0.24633 
 C                    -3.27236   0.60288   1.4815 
 C                    -2.54286   1.69779   2.25411 
 C                    -2.66609   1.73341  -1.15887 
 C                    -4.0688    2.3166   -1.30081 
 H                    -4.6307   -0.62741  -0.89225 
 H                    -3.30089  -1.0841   -1.95924 
 H                    -4.18058  -3.09902  -0.78382 
 H                    -3.8844   -2.36003   0.79211 
 H                    -2.51861  -2.78509  -0.25353 
 H                    -4.32196   0.86893   1.30998 
 H                    -3.26778  -0.33344   2.04971 
 H                    -3.01225   1.84638   3.23126 
 H                    -2.57044   2.655     1.72402 
 H                    -1.49339   1.43197   2.41839 
 H                    -2.2503    1.46858  -2.13784 
 H                    -1.97853   2.46875  -0.72661 
 H                    -4.76162   1.60752  -1.76287 
 H                    -4.03386   3.20613  -1.93761 
 H                    -4.48484   2.62038  -0.33561 
 C                     2.99469   0.01607   0.03418 
 C                     2.62468   1.36459   0.02381 
 C                     4.36624  -0.3112   -0.09529 
 C                     3.565     2.38228  -0.11121 
 H                     1.57117   1.61309   0.1239 
 C                     5.30302   0.72119  -0.23307 
 N                     4.78656  -1.63272  -0.03381 
 C                     4.91326   2.05494  -0.24027 
 H                     3.24268   3.41934  -0.11591 
 H                     6.35415   0.45998  -0.33517 
 H                     4.08101  -2.3094   -0.29354 
 H                     5.67983  -1.81701  -0.46614 
 H                     5.66274   2.83373  -0.34926 
 

 GradGradGradGradGradGradGradGradGradGradGradGradGradGradGradGradGradGrad
 Berny optimization.
 Initialization pass.
                           ----------------------------
                           !    Initial Parameters    !
                           ! (Angstroms and Degrees)  !
 --------------------------                            --------------------------
 ! Name  Definition              Value          Derivative Info.                !
 --------------------------------------------------------------------------------
 ! R1    R(1,2)                  2.339          estimate D2E/DX2                !
 ! R2    R(1,3)                  2.2961         estimate D2E/DX2                !
 ! R3    R(2,25)                 1.7691         estimate D2E/DX2                !
 ! R4    R(3,4)                  1.8298         estimate D2E/DX2                !
 ! R5    R(3,6)                  1.8305         estimate D2E/DX2                !
 ! R6    R(3,8)                  1.8314         estimate D2E/DX2                !
 ! R7    R(4,5)                  1.5265         estimate D2E/DX2                !
 ! R8    R(4,10)                 1.096          estimate D2E/DX2                !
 ! R9    R(4,11)                 1.096          estimate D2E/DX2                !
 ! R10   R(5,12)                 1.0943         estimate D2E/DX2                !
 ! R11   R(5,13)                 1.0943         estimate D2E/DX2                !
 ! R12   R(5,14)                 1.095          estimate D2E/DX2                !
 ! R13   R(6,7)                  1.5258         estimate D2E/DX2                !
 ! R14   R(6,15)                 1.0963         estimate D2E/DX2                !
 ! R15   R(6,16)                 1.0952         estimate D2E/DX2                !
 ! R16   R(7,17)                 1.0942         estimate D2E/DX2                !
 ! R17   R(7,18)                 1.0945         estimate D2E/DX2                !
 ! R18   R(7,19)                 1.095          estimate D2E/DX2                !
 ! R19   R(8,9)                  1.5257         estimate D2E/DX2                !
 ! R20   R(8,20)                 1.0961         estimate D2E/DX2                !
 ! R21   R(8,21)                 1.0956         estimate D2E/DX2                !
 ! R22   R(9,22)                 1.0938         estimate D2E/DX2                !
 ! R23   R(9,23)                 1.0945         estimate D2E/DX2                !
 ! R24   R(9,24)                 1.0941         estimate D2E/DX2                !
 ! R25   R(25,26)                1.3984         estimate D2E/DX2                !
 ! R26   R(25,27)                1.416          estimate D2E/DX2                !
 ! R27   R(26,28)                1.3922         estimate D2E/DX2                !
 ! R28   R(26,29)                1.087          estimate D2E/DX2                !
 ! R29   R(27,30)                1.4008         estimate D2E/DX2                !
 ! R30   R(27,31)                1.3881         estimate D2E/DX2                !
 ! R31   R(28,32)                1.3934         estimate D2E/DX2                !
 ! R32   R(28,33)                1.086          estimate D2E/DX2                !
 ! R33   R(30,32)                1.3895         estimate D2E/DX2                !
 ! R34   R(30,34)                1.0879         estimate D2E/DX2                !
 ! R35   R(31,35)                1.0115         estimate D2E/DX2                !
 ! R36   R(31,36)                1.0094         estimate D2E/DX2                !
 ! R37   R(32,37)                1.0863         estimate D2E/DX2                !
 ! A1    A(1,2,25)             108.8658         estimate D2E/DX2                !
 ! A2    A(1,3,4)              113.2662         estimate D2E/DX2                !
 ! A3    A(1,3,6)              113.3042         estimate D2E/DX2                !
 ! A4    A(1,3,8)              112.0901         estimate D2E/DX2                !
 ! A5    A(4,3,6)              105.2128         estimate D2E/DX2                !
 ! A6    A(4,3,8)              105.7692         estimate D2E/DX2                !
 ! A7    A(6,3,8)              106.5715         estimate D2E/DX2                !
 ! A8    A(3,4,5)              113.6363         estimate D2E/DX2                !
 ! A9    A(3,4,10)             108.2469         estimate D2E/DX2                !
 ! A10   A(3,4,11)             106.0554         estimate D2E/DX2                !
 ! A11   A(5,4,10)             110.8214         estimate D2E/DX2                !
 ! A12   A(5,4,11)             110.507          estimate D2E/DX2                !
 ! A13   A(10,4,11)            107.2706         estimate D2E/DX2                !
 ! A14   A(4,5,12)             110.0165         estimate D2E/DX2                !
 ! A15   A(4,5,13)             111.8129         estimate D2E/DX2                !
 ! A16   A(4,5,14)             111.1246         estimate D2E/DX2                !
 ! A17   A(12,5,13)            107.5571         estimate D2E/DX2                !
 ! A18   A(12,5,14)            108.1246         estimate D2E/DX2                !
 ! A19   A(13,5,14)            108.0603         estimate D2E/DX2                !
 ! A20   A(3,6,7)              113.3843         estimate D2E/DX2                !
 ! A21   A(3,6,15)             108.2271         estimate D2E/DX2                !
 ! A22   A(3,6,16)             106.2058         estimate D2E/DX2                !
 ! A23   A(7,6,15)             111.2736         estimate D2E/DX2                !
 ! A24   A(7,6,16)             110.4125         estimate D2E/DX2                !
 ! A25   A(15,6,16)            107.0164         estimate D2E/DX2                !
 ! A26   A(6,7,17)             110.1552         estimate D2E/DX2                !
 ! A27   A(6,7,18)             111.7341         estimate D2E/DX2                !
 ! A28   A(6,7,19)             111.1004         estimate D2E/DX2                !
 ! A29   A(17,7,18)            107.6343         estimate D2E/DX2                !
 ! A30   A(17,7,19)            108.067          estimate D2E/DX2                !
 ! A31   A(18,7,19)            108.0052         estimate D2E/DX2                !
 ! A32   A(3,8,9)              116.5847         estimate D2E/DX2                !
 ! A33   A(3,8,20)             105.4235         estimate D2E/DX2                !
 ! A34   A(3,8,21)             106.1995         estimate D2E/DX2                !
 ! A35   A(9,8,20)             110.9783         estimate D2E/DX2                !
 ! A36   A(9,8,21)             110.9237         estimate D2E/DX2                !
 ! A37   A(20,8,21)            106.0503         estimate D2E/DX2                !
 ! A38   A(8,9,22)             111.9539         estimate D2E/DX2                !
 ! A39   A(8,9,23)             109.5988         estimate D2E/DX2                !
 ! A40   A(8,9,24)             111.942          estimate D2E/DX2                !
 ! A41   A(22,9,23)            107.536          estimate D2E/DX2                !
 ! A42   A(22,9,24)            108.1691         estimate D2E/DX2                !
 ! A43   A(23,9,24)            107.4427         estimate D2E/DX2                !
 ! A44   A(2,25,26)            123.8746         estimate D2E/DX2                !
 ! A45   A(2,25,27)            117.5358         estimate D2E/DX2                !
 ! A46   A(26,25,27)           118.5873         estimate D2E/DX2                !
 ! A47   A(25,26,28)           121.7989         estimate D2E/DX2                !
 ! A48   A(25,26,29)           118.438          estimate D2E/DX2                !
 ! A49   A(28,26,29)           119.7631         estimate D2E/DX2                !
 ! A50   A(25,27,30)           119.1042         estimate D2E/DX2                !
 ! A51   A(25,27,31)           120.6158         estimate D2E/DX2                !
 ! A52   A(30,27,31)           120.2311         estimate D2E/DX2                !
 ! A53   A(26,28,32)           119.3929         estimate D2E/DX2                !
 ! A54   A(26,28,33)           119.8693         estimate D2E/DX2                !
 ! A55   A(32,28,33)           120.7378         estimate D2E/DX2                !
 ! A56   A(27,30,32)           121.3536         estimate D2E/DX2                !
 ! A57   A(27,30,34)           118.581          estimate D2E/DX2                !
 ! A58   A(32,30,34)           120.0654         estimate D2E/DX2                !
 ! A59   A(27,31,35)           114.4757         estimate D2E/DX2                !
 ! A60   A(27,31,36)           115.0131         estimate D2E/DX2                !
 ! A61   A(35,31,36)           112.654          estimate D2E/DX2                !
 ! A62   A(28,32,30)           119.7628         estimate D2E/DX2                !
 ! A63   A(28,32,37)           120.5597         estimate D2E/DX2                !
 ! A64   A(30,32,37)           119.6773         estimate D2E/DX2                !
 ! A65   L(2,1,3,33,-1)        183.2732         estimate D2E/DX2                !
 ! A66   L(2,1,3,33,-2)        180.0449         estimate D2E/DX2                !
 ! D1    D(25,2,3,4)           146.9061         estimate D2E/DX2                !
 ! D2    D(25,2,3,6)           -94.3947         estimate D2E/DX2                !
 ! D3    D(25,2,3,8)            27.334          estimate D2E/DX2                !
 ! D4    D(1,2,25,26)           10.2095         estimate D2E/DX2                !
 ! D5    D(1,2,25,27)         -170.3525         estimate D2E/DX2                !
 ! D6    D(1,3,4,5)             52.9893         estimate D2E/DX2                !
 ! D7    D(1,3,4,10)           176.5512         estimate D2E/DX2                !
 ! D8    D(1,3,4,11)           -68.6032         estimate D2E/DX2                !
 ! D9    D(6,3,4,5)            -71.2876         estimate D2E/DX2                !
 ! D10   D(6,3,4,10)            52.2743         estimate D2E/DX2                !
 ! D11   D(6,3,4,11)           167.1199         estimate D2E/DX2                !
 ! D12   D(8,3,4,5)            176.1357         estimate D2E/DX2                !
 ! D13   D(8,3,4,10)           -60.3024         estimate D2E/DX2                !
 ! D14   D(8,3,4,11)            54.5433         estimate D2E/DX2                !
 ! D15   D(1,3,6,7)             59.4105         estimate D2E/DX2                !
 ! D16   D(1,3,6,15)          -176.6325         estimate D2E/DX2                !
 ! D17   D(1,3,6,16)           -62.0147         estimate D2E/DX2                !
 ! D18   D(4,3,6,7)           -176.3366         estimate D2E/DX2                !
 ! D19   D(4,3,6,15)           -52.3797         estimate D2E/DX2                !
 ! D20   D(4,3,6,16)            62.2381         estimate D2E/DX2                !
 ! D21   D(8,3,6,7)            -64.3274         estimate D2E/DX2                !
 ! D22   D(8,3,6,15)            59.6296         estimate D2E/DX2                !
 ! D23   D(8,3,6,16)           174.2474         estimate D2E/DX2                !
 ! D24   D(1,3,8,9)           -178.0075         estimate D2E/DX2                !
 ! D25   D(1,3,8,20)            58.3947         estimate D2E/DX2                !
 ! D26   D(1,3,8,21)           -53.8659         estimate D2E/DX2                !
 ! D27   D(4,3,8,9)             58.1041         estimate D2E/DX2                !
 ! D28   D(4,3,8,20)           -65.4937         estimate D2E/DX2                !
 ! D29   D(4,3,8,21)          -177.7543         estimate D2E/DX2                !
 ! D30   D(6,3,8,9)            -53.5199         estimate D2E/DX2                !
 ! D31   D(6,3,8,20)          -177.1177         estimate D2E/DX2                !
 ! D32   D(6,3,8,21)            70.6217         estimate D2E/DX2                !
 ! D33   D(3,4,5,12)          -177.1361         estimate D2E/DX2                !
 ! D34   D(3,4,5,13)            63.4173         estimate D2E/DX2                !
 ! D35   D(3,4,5,14)           -57.4211         estimate D2E/DX2                !
 ! D36   D(10,4,5,12)           60.7166         estimate D2E/DX2                !
 ! D37   D(10,4,5,13)          -58.7301         estimate D2E/DX2                !
 ! D38   D(10,4,5,14)         -179.5684         estimate D2E/DX2                !
 ! D39   D(11,4,5,12)          -58.0575         estimate D2E/DX2                !
 ! D40   D(11,4,5,13)         -177.5042         estimate D2E/DX2                !
 ! D41   D(11,4,5,14)           61.6574         estimate D2E/DX2                !
 ! D42   D(3,6,7,17)          -177.0843         estimate D2E/DX2                !
 ! D43   D(3,6,7,18)            63.3308         estimate D2E/DX2                !
 ! D44   D(3,6,7,19)           -57.3661         estimate D2E/DX2                !
 ! D45   D(15,6,7,17)           60.6358         estimate D2E/DX2                !
 ! D46   D(15,6,7,18)          -58.9491         estimate D2E/DX2                !
 ! D47   D(15,6,7,19)         -179.6461         estimate D2E/DX2                !
 ! D48   D(16,6,7,17)          -58.0485         estimate D2E/DX2                !
 ! D49   D(16,6,7,18)         -177.6334         estimate D2E/DX2                !
 ! D50   D(16,6,7,19)           61.6697         estimate D2E/DX2                !
 ! D51   D(3,8,9,22)           -60.2704         estimate D2E/DX2                !
 ! D52   D(3,8,9,23)          -179.5037         estimate D2E/DX2                !
 ! D53   D(3,8,9,24)            61.3872         estimate D2E/DX2                !
 ! D54   D(20,8,9,22)           60.4191         estimate D2E/DX2                !
 ! D55   D(20,8,9,23)          -58.8142         estimate D2E/DX2                !
 ! D56   D(20,8,9,24)         -177.9233         estimate D2E/DX2                !
 ! D57   D(21,8,9,22)          178.0396         estimate D2E/DX2                !
 ! D58   D(21,8,9,23)           58.8063         estimate D2E/DX2                !
 ! D59   D(21,8,9,24)          -60.3027         estimate D2E/DX2                !
 ! D60   D(2,25,26,28)         179.5087         estimate D2E/DX2                !
 ! D61   D(2,25,26,29)          -0.5355         estimate D2E/DX2                !
 ! D62   D(27,25,26,28)          0.0763         estimate D2E/DX2                !
 ! D63   D(27,25,26,29)       -179.968          estimate D2E/DX2                !
 ! D64   D(2,25,27,30)        -179.6633         estimate D2E/DX2                !
 ! D65   D(2,25,27,31)          -2.1996         estimate D2E/DX2                !
 ! D66   D(26,25,27,30)         -0.1947         estimate D2E/DX2                !
 ! D67   D(26,25,27,31)        177.269          estimate D2E/DX2                !
 ! D68   D(25,26,28,32)          0.0164         estimate D2E/DX2                !
 ! D69   D(25,26,28,33)        179.9601         estimate D2E/DX2                !
 ! D70   D(29,26,28,32)       -179.9388         estimate D2E/DX2                !
 ! D71   D(29,26,28,33)          0.0049         estimate D2E/DX2                !
 ! D72   D(25,27,30,32)          0.2278         estimate D2E/DX2                !
 ! D73   D(25,27,30,34)       -179.8046         estimate D2E/DX2                !
 ! D74   D(31,27,30,32)       -177.2458         estimate D2E/DX2                !
 ! D75   D(31,27,30,34)          2.7218         estimate D2E/DX2                !
 ! D76   D(25,27,31,35)         25.2328         estimate D2E/DX2                !
 ! D77   D(25,27,31,36)        158.0288         estimate D2E/DX2                !
 ! D78   D(30,27,31,35)       -157.3321         estimate D2E/DX2                !
 ! D79   D(30,27,31,36)        -24.5362         estimate D2E/DX2                !
 ! D80   D(26,28,32,30)          0.0114         estimate D2E/DX2                !
 ! D81   D(26,28,32,37)        179.8448         estimate D2E/DX2                !
 ! D82   D(33,28,32,30)       -179.9318         estimate D2E/DX2                !
 ! D83   D(33,28,32,37)         -0.0984         estimate D2E/DX2                !
 ! D84   D(27,30,32,28)         -0.1355         estimate D2E/DX2                !
 ! D85   D(27,30,32,37)       -179.9704         estimate D2E/DX2                !
 ! D86   D(34,30,32,28)        179.8974         estimate D2E/DX2                !
 ! D87   D(34,30,32,37)          0.0625         estimate D2E/DX2                !
 --------------------------------------------------------------------------------
 Trust Radius=3.00D-01 FncErr=1.00D-07 GrdErr=1.00D-06
 Number of steps in this run=    200 maximum allowed number of steps=    222.
 GradGradGradGradGradGradGradGradGradGradGradGradGradGradGradGradGradGrad

                          Input orientation:                          
 ---------------------------------------------------------------------
 Center     Atomic      Atomic             Coordinates (Angstroms)
 Number     Number       Type             X           Y           Z
 ---------------------------------------------------------------------
      1         79           0       -0.326632   -0.479463    0.032400
      2         16           0        1.848719   -1.319495    0.214852
      3         15           0       -2.506388    0.222096   -0.136882
      4          6           0       -3.607196   -1.018919   -0.908980
      5          6           0       -3.540757   -2.392495   -0.246325
      6          6           0       -3.272364    0.602876    1.481499
      7          6           0       -2.542865    1.697793    2.254106
      8          6           0       -2.666091    1.733406   -1.158866
      9          6           0       -4.068797    2.316599   -1.300811
     10          1           0       -4.630698   -0.627414   -0.892246
     11          1           0       -3.300894   -1.084096   -1.959238
     12          1           0       -4.180578   -3.099015   -0.783824
     13          1           0       -3.884397   -2.360034    0.792109
     14          1           0       -2.518611   -2.785091   -0.253526
     15          1           0       -4.321964    0.868933    1.309983
     16          1           0       -3.267777   -0.333435    2.049711
     17          1           0       -3.012245    1.846380    3.231257
     18          1           0       -2.570442    2.655000    1.724018
     19          1           0       -1.493385    1.431973    2.418385
     20          1           0       -2.250297    1.468584   -2.137840
     21          1           0       -1.978528    2.468747   -0.726612
     22          1           0       -4.761620    1.607523   -1.762871
     23          1           0       -4.033864    3.206132   -1.937614
     24          1           0       -4.484842    2.620381   -0.335609
     25          6           0        2.994694    0.016073    0.034184
     26          6           0        2.624680    1.364585    0.023805
     27          6           0        4.366241   -0.311195   -0.095294
     28          6           0        3.564999    2.382282   -0.111205
     29          1           0        1.571171    1.613090    0.123900
     30          6           0        5.303017    0.721189   -0.233066
     31          7           0        4.786557   -1.632717   -0.033808
     32          6           0        4.913259    2.054937   -0.240266
     33          1           0        3.242677    3.419343   -0.115909
     34          1           0        6.354154    0.459976   -0.335166
     35          1           0        4.081007   -2.309401   -0.293543
     36          1           0        5.679832   -1.817013   -0.466139
     37          1           0        5.662737    2.833727   -0.349256
 ---------------------------------------------------------------------
                    Distance matrix (angstroms):
                    1          2          3          4          5
     1  Au   0.000000
     2  S    2.339037   0.000000
     3  P    2.296122   4.633268   0.000000
     4  C    3.455331   5.578562   1.829763   0.000000
     5  C    3.750730   5.514568   2.813891   1.526511   0.000000
     6  C    3.456687   5.614748   1.830538   2.908044   3.468380
     7  C    3.819438   5.705137   2.809953   4.303305   4.896774
     8  C    3.433507   5.620571   1.831397   2.919489   4.315186
     9  C    4.857902   7.108826   2.860559   3.390028   4.854517
    10  H    4.404752   6.609651   2.409343   1.095953   2.172716
    11  H    3.630212   5.594693   2.378730   1.095952   2.168758
    12  H    4.730875   6.365255   3.775079   2.161303   1.094279
    13  H    4.095290   5.855302   3.070721   2.183835   1.094298
    14  H    3.194127   4.630434   3.009473   2.175776   1.094973
    15  H    4.406026   6.638212   2.410007   2.999779   3.697201
    16  H    3.569482   5.524269   2.381075   3.055969   3.096131
    17  H    4.780664   6.538382   3.773400   5.070056   5.508263
    18  H    4.209645   6.132143   3.063670   4.637372   5.504632
    19  H    3.272281   4.857550   3.003226   4.641813   5.091067
    20  H    3.493611   5.487301   2.371318   3.088518   4.488992
    21  H    3.463640   5.466713   2.381986   3.853522   5.128636
    22  H    5.219926   7.495025   3.106335   2.993330   4.448658
    23  H    5.586424   7.727819   3.805298   4.369347   5.869262
    24  H    5.199536   7.479280   3.115372   3.787284   5.101783
    25  C    3.358090   1.769079   5.507596   6.748757   6.970797
    26  C    3.480062   2.800518   5.259179   6.737021   7.225042
    27  C    4.697625   2.729611   6.893414   8.046034   8.177728
    28  C    4.832701   4.093297   6.444285   7.977781   8.562040
    29  H    2.826448   2.947093   4.316174   5.899983   6.504889
    30  C    5.762377   4.036979   7.825928   9.103666   9.375902
    31  N    5.242049   2.964934   7.525822   8.461546   8.364603
    32  C    5.827005   4.580975   7.643373   9.082617   9.552490
    33  H    5.287972   4.950667   6.578341   8.200481   8.933613
    34  H    6.756519   4.875242   8.865952  10.086867  10.298240
    35  H    4.783534   2.494291   7.058810   7.820011   7.622363
    36  H    6.173750   3.922843   8.442782   9.331771   9.241145
    37  H    6.855321   5.666940   8.579063  10.054244  10.584342
                    6          7          8          9         10
     6  C    0.000000
     7  C    1.525757   0.000000
     8  C    2.935505   3.415382   0.000000
     9  C    3.363391   3.917758   1.525728   0.000000
    10  H    2.998891   4.434542   3.082894   3.024875   0.000000
    11  H    3.832148   5.105466   2.996980   3.547947   1.765052
    12  H    4.434021   5.909356   5.078053   5.441383   2.514592
    13  H    3.103011   4.516979   4.695405   5.126911   2.529029
    14  H    3.880306   5.136639   4.610662   5.433887   3.086170
    15  H    1.096296   2.177974   3.095875   2.996010   2.680333
    16  H    1.095246   2.166371   3.863784   4.346299   3.255624
    17  H    2.162318   1.094175   4.405198   4.677291   5.073689
    18  H    2.182366   1.094531   3.028119   3.392517   4.675867
    19  H    2.174839   1.095014   3.776616   4.609526   5.004407
    20  H    3.859234   4.407644   1.096086   2.174095   3.407495
    21  H    3.167213   3.130100   1.095588   2.173034   4.080154
    22  H    3.708522   4.589894   2.184470   1.093751   2.402097
    23  H    4.364305   4.697731   2.155498   1.094535   4.018094
    24  H    2.973602   3.365868   2.184567   1.094071   3.298377
    25  C    6.458721   6.198451   6.034657   7.547684   7.708369
    26  C    6.122108   5.638155   5.433875   6.889381   7.579427
    27  C    7.853031   7.569112   7.400356   8.916750   9.037701
    28  C    7.242412   6.585531   6.351781   7.726210   8.765714
    29  H    5.130637   4.633600   4.428810   5.859519   6.672000
    30  C    8.745907   8.288404   8.086308   9.566416  10.046489
    31  N    8.499426   8.369425   8.254605   9.778532   9.509587
    32  C    8.489840   7.870402   7.641581   9.048235   9.935150
    33  H    7.275298   6.484844   6.232470   7.488504   8.886449
    34  H    9.797476   9.348447   9.146853  10.630965  11.052589
    35  H    8.105813   8.150080   7.913053   9.425167   8.892768
    36  H    9.475810   9.346996   9.096141  10.621638  10.387673
    37  H    9.389589   8.683303   8.440116   9.791610  10.873322
                   11         12         13         14         15
    11  H    0.000000
    12  H    2.493058   0.000000
    13  H    3.088431   1.765611   0.000000
    14  H    2.532746   1.772540   1.771834   0.000000
    15  H    3.942678   4.488722   3.299377   4.364463   0.000000
    16  H    4.078757   4.063319   2.463511   3.446269   1.761873
    17  H    5.967600   6.476327   4.940042   5.817036   2.522312
    18  H    5.299130   6.480008   5.267400   5.788606   2.535604
    19  H    5.362954   6.164820   4.768756   5.096452   3.089729
    20  H    2.766194   5.140263   5.090501   4.660084   4.066801
    21  H    3.986316   5.987677   5.408879   5.302670   3.492680
    22  H    3.068728   4.842277   4.799891   5.157933   3.190806
    23  H    4.352444   6.411524   6.201285   6.405224   4.011532
    24  H    4.214387   5.744995   5.141674   5.752559   2.408749
    25  C    6.694664   7.864950   7.317255   6.190786   7.475862
    26  C    6.711254   8.178479   7.538645   6.614391   7.082075
    27  C    7.928217   9.016326   8.547412   7.317540   8.879888
    28  C    7.910214   9.512676   8.876882   7.983252   8.155623
    29  H    5.945695   7.490695   6.781994   6.017704   6.057194
    30  C    8.959130  10.238939   9.744408   8.571597   9.749004
    31  N    8.331574   9.117130   8.740513   7.398765   9.540921
    32  C    8.959950  10.466926   9.897299   8.868976   9.439238
    33  H    8.154578   9.901506   9.220677   8.467962   8.109350
    34  H    9.911696  11.128715  10.679472   9.447914  10.809868
    35  H    7.666053   8.313703   8.039208   6.616860   9.125953
    36  H    9.133452   9.948474   9.661912   8.258138  10.507371
    37  H    9.914033  11.501179  10.928204   9.925459  10.310565
                   16         17         18         19         20
    16  H    0.000000
    17  H    2.492577   0.000000
    18  H    3.085951   1.766586   0.000000
    19  H    2.530030   1.771844   1.771438   0.000000
    20  H    4.670987   5.436037   4.052656   4.618814   0.000000
    21  H    4.149983   4.137709   2.527971   3.346830   1.750928
    22  H    4.531519   5.297044   4.249337   5.309904   2.542961
    23  H    5.386482   5.441494   3.981570   5.345690   2.498054
    24  H    3.986982   3.935753   2.812150   4.236226   3.093196
    25  C    6.588099   7.046603   6.386722   5.275608   5.859813
    26  C    6.458221   6.503445   5.616510   4.764138   5.333753
    27  C    7.929677   8.376343   7.760527   6.610025   7.149698
    28  C    7.663648   7.397255   6.409840   5.734907   6.225734
    29  H    5.559957   5.542364   4.560582   3.832619   4.442968
    30  C    8.932067   9.078060   8.340333   7.329835   7.825555
    31  N    8.420302   9.142542   8.694821   7.405623   7.972599
    32  C    8.824832   8.654974   7.760430   6.964309   7.433783
    33  H    7.820439   7.266483   6.145072   5.727353   6.169800
    34  H    9.944782  10.117852   9.418428   8.373213   8.848927
    35  H    7.962406   8.944772   8.541522   7.240599   7.600001
    36  H    9.412237  10.131307   9.636530   8.386384   8.745095
    37  H    9.774458   9.436643   8.492093   7.799669   8.226710
                   21         22         23         24         25
    21  H    0.000000
    22  H    3.092109   0.000000
    23  H    2.496932   1.765139   0.000000
    24  H    2.541158   1.771882   1.764343   0.000000
    25  C    5.597085   8.119269   7.966498   7.928595   0.000000
    26  C    4.792893   7.603200   7.181551   7.228520   1.398393
    27  C    6.955770   9.475238   9.291259   9.327034   1.415984
    28  C    5.578252   8.524133   7.858576   8.056487   2.438305
    29  H    3.749118   6.607888   6.180942   6.156385   2.141245
    30  C    7.504562  10.218748   9.811105   9.970939   2.428367
    31  N    7.941559  10.230176  10.239080  10.204840   2.435961
    32  C    6.921308   9.804172   9.179175   9.415579   2.813038
    33  H    5.342057   8.370421   7.504140   7.771818   3.415592
    34  H    8.580325  11.265684  10.863707  11.052203   3.408730
    35  H    7.728920   9.782294   9.948628   9.883233   2.587530
    36  H    8.779867  11.064939  11.034179  11.091803   3.289452
    37  H    7.659278  10.590992   9.832886  10.149831   3.899315
                   26         27         28         29         30
    26  C    0.000000
    27  C    2.419805   0.000000
    28  C    1.392169   2.810171   0.000000
    29  H    1.087040   3.400490   2.149949   0.000000
    30  C    2.766483   1.400838   2.407236   3.853516   0.000000
    31  N    3.696059   1.388116   4.197429   4.571525   2.418121
    32  C    2.404977   2.432864   1.393419   3.390781   1.389549
    33  H    2.150226   3.896118   1.086006   2.472648   3.396875
    34  H    3.854368   2.145703   3.394820   4.941390   1.087909
    35  H    3.964817   2.028174   4.723495   4.675411   3.268247
    36  H    4.438081   2.032372   4.715143   5.384686   2.576583
    37  H    3.395194   3.411148   2.158929   4.295898   2.146093
                   31         32         33         34         35
    31  N    0.000000
    32  C    3.695601   0.000000
    33  H    5.283334   2.160535   0.000000
    34  H    2.632022   2.151531   4.299676   0.000000
    35  H    1.011516   4.443301   5.792483   3.583068   0.000000
    36  H    1.009364   3.953562   5.786347   2.378349   1.681808
    37  H    4.562491   1.086329   2.500817   2.472438   5.381147
                   36         37
    36  H    0.000000
    37  H    4.652240   0.000000
 Stoichiometry    C12H21AuNPS
 Framework group  C1[X(C12H21AuNPS)]
 Deg. of freedom   105
 Full point group                 C1      NOp   1
 Largest Abelian subgroup         C1      NOp   1
 Largest concise Abelian subgroup C1      NOp   1
                         Standard orientation:                         
 ---------------------------------------------------------------------
 Center     Atomic      Atomic             Coordinates (Angstroms)
 Number     Number       Type             X           Y           Z
 ---------------------------------------------------------------------
      1         79           0       -0.326632   -0.479463    0.032400
      2         16           0        1.848719   -1.319495    0.214852
      3         15           0       -2.506388    0.222096   -0.136882
      4          6           0       -3.607196   -1.018919   -0.908980
      5          6           0       -3.540757   -2.392495   -0.246325
      6          6           0       -3.272364    0.602876    1.481499
      7          6           0       -2.542865    1.697793    2.254106
      8          6           0       -2.666091    1.733406   -1.158866
      9          6           0       -4.068797    2.316599   -1.300811
     10          1           0       -4.630698   -0.627414   -0.892246
     11          1           0       -3.300894   -1.084096   -1.959238
     12          1           0       -4.180578   -3.099015   -0.783824
     13          1           0       -3.884397   -2.360034    0.792109
     14          1           0       -2.518611   -2.785091   -0.253526
     15          1           0       -4.321964    0.868933    1.309983
     16          1           0       -3.267777   -0.333435    2.049711
     17          1           0       -3.012245    1.846380    3.231257
     18          1           0       -2.570442    2.655000    1.724018
     19          1           0       -1.493385    1.431973    2.418385
     20          1           0       -2.250297    1.468584   -2.137840
     21          1           0       -1.978528    2.468747   -0.726612
     22          1           0       -4.761620    1.607523   -1.762871
     23          1           0       -4.033864    3.206132   -1.937614
     24          1           0       -4.484842    2.620381   -0.335609
     25          6           0        2.994694    0.016073    0.034184
     26          6           0        2.624680    1.364585    0.023805
     27          6           0        4.366241   -0.311195   -0.095294
     28          6           0        3.564999    2.382282   -0.111205
     29          1           0        1.571171    1.613090    0.123900
     30          6           0        5.303017    0.721189   -0.233066
     31          7           0        4.786557   -1.632717   -0.033808
     32          6           0        4.913259    2.054937   -0.240266
     33          1           0        3.242677    3.419343   -0.115909
     34          1           0        6.354154    0.459976   -0.335166
     35          1           0        4.081007   -2.309401   -0.293543
     36          1           0        5.679832   -1.817013   -0.466139
     37          1           0        5.662737    2.833727   -0.349256
 ---------------------------------------------------------------------
 Rotational constants (GHZ):      0.6422989      0.1606060      0.1416073
 General basis read from cards:  (5D, 7F)
 ======================================================================================================
                                       Pseudopotential Parameters
 ======================================================================================================
  Center     Atomic      Valence      Angular      Power
  Number     Number     Electrons     Momentum     of R      Exponent        Coefficient   SO-Coeffient
 ======================================================================================================
    1         79           19
                                      G and up 
                                                     1      622.6287956      -60.00000000    0.00000000
                                                     2      136.2843607     -555.52923120    0.00000000
                                                     2       33.1549781     -168.00197850    0.00000000
                                                     2        9.9894895      -63.03998750    0.00000000
                                                     2        3.0481312       -4.25166810    0.00000000
                                      S - G
                                                     0      194.7374304        3.00000000    0.00000000
                                                     1      351.5327447       38.60208800    0.00000000
                                                     2      122.3270402      864.83707270    0.00000000
                                                     2       32.0914617      374.99355200    0.00000000
                                                     2        5.2451812      289.79101000    0.00000000
                                                     2        4.4916223     -152.45327730    0.00000000
                                      P - G
                                                     0      420.6158801        2.00000000    0.00000000
                                                     1      109.4417815       73.88856250    0.00000000
                                                     2       34.1714280      326.67298720    0.00000000
                                                     2        5.9879750      126.58145910    0.00000000
                                      D - G
                                                     0      219.2666158        3.00000000    0.00000000
                                                     1      122.7297786       55.67931490    0.00000000
                                                     2       63.1063369      449.19873350    0.00000000
                                                     2       18.3684520      215.02690910    0.00000000
                                                     2        4.4972844       64.08409950    0.00000000
                                      F - G
                                                     0      108.5506037        4.00000000    0.00000000
                                                     1       56.4795527       51.80653350    0.00000000
                                                     2       29.2069159      231.21831130    0.00000000
                                                     2        9.5440543      119.00473860    0.00000000
                                                     2        2.8965118       15.34241880    0.00000000
    2         16
                                   No pseudopotential on this center.
    3         15
                                   No pseudopotential on this center.
    4          6
                                   No pseudopotential on this center.
    5          6
                                   No pseudopotential on this center.
    6          6
                                   No pseudopotential on this center.
    7          6
                                   No pseudopotential on this center.
    8          6
                                   No pseudopotential on this center.
    9          6
                                   No pseudopotential on this center.
   10          1
                                   No pseudopotential on this center.
   11          1
                                   No pseudopotential on this center.
   12          1
                                   No pseudopotential on this center.
   13          1
                                   No pseudopotential on this center.
   14          1
                                   No pseudopotential on this center.
   15          1
                                   No pseudopotential on this center.
   16          1
                                   No pseudopotential on this center.
   17          1
                                   No pseudopotential on this center.
   18          1
                                   No pseudopotential on this center.
   19          1
                                   No pseudopotential on this center.
   20          1
                                   No pseudopotential on this center.
   21          1
                                   No pseudopotential on this center.
   22          1
                                   No pseudopotential on this center.
   23          1
                                   No pseudopotential on this center.
   24          1
                                   No pseudopotential on this center.
   25          6
                                   No pseudopotential on this center.
   26          6
                                   No pseudopotential on this center.
   27          6
                                   No pseudopotential on this center.
   28          6
                                   No pseudopotential on this center.
   29          1
                                   No pseudopotential on this center.
   30          6
                                   No pseudopotential on this center.
   31          7
                                   No pseudopotential on this center.
   32          6
                                   No pseudopotential on this center.
   33          1
                                   No pseudopotential on this center.
   34          1
                                   No pseudopotential on this center.
   35          1
                                   No pseudopotential on this center.
   36          1
                                   No pseudopotential on this center.
   37          1
                                   No pseudopotential on this center.
 ======================================================================================================
 There are   323 symmetry adapted cartesian basis functions of A   symmetry.
 There are   302 symmetry adapted basis functions of A   symmetry.
   302 basis functions,   600 primitive gaussians,   323 cartesian basis functions
    75 alpha electrons       75 beta electrons
       nuclear repulsion energy      1502.6426539318 Hartrees.
 NAtoms=   37 NActive=   37 NUniq=   37 SFac= 1.00D+00 NAtFMM=   60 NAOKFM=F Big=F
 Integral buffers will be    131072 words long.
 Raffenetti 2 integral format.
 Two-electron integral symmetry is turned on.
 One-electron integrals computed using PRISM.
   1 Symmetry operations used in ECPInt.
 ECPInt:  NShTT=    7021 NPrTT=   38313 LenC2=    6020 LenP2D=   19842.
 LDataN:  DoStor=T MaxTD1= 7 Len=  274
 NBasis=   302 RedAO= T EigKep=  4.61D-04  NBF=   302
 NBsUse=   302 1.00D-06 EigRej= -1.00D+00 NBFU=   302
 Defaulting to unpruned grid for atomic number  79.
 ExpMin= 2.79D-02 ExpMax= 2.19D+04 ExpMxC= 3.30D+03 IAcc=3 IRadAn=         5 AccDes= 0.00D+00
 Harris functional with IExCor=  402 and IRadAn=       5 diagonalized for initial guess.
 HarFok:  IExCor=  402 AccDes= 0.00D+00 IRadAn=         5 IDoV= 1 UseB2=F ITyADJ=14
 ICtDFT=  3500011 ScaDFX=  1.000000  1.000000  1.000000  1.000000
 Defaulting to unpruned grid for atomic number  79.
 Defaulting to unpruned grid for atomic number  79.
 Defaulting to unpruned grid for atomic number  79.
 Defaulting to unpruned grid for atomic number  79.
 Defaulting to unpruned grid for atomic number  79.
 Defaulting to unpruned grid for atomic number  79.
 Defaulting to unpruned grid for atomic number  79.
 Defaulting to unpruned grid for atomic number  79.
 FoFCou: FMM=F IPFlag=           0 FMFlag=      100000 FMFlg1=           0
         NFxFlg=           0 DoJE=T BraDBF=F KetDBF=T FulRan=T
         wScrn=  0.000000 ICntrl=     500 IOpCl=  0 I1Cent=   200000004 NGrid=           0
         NMat0=    1 NMatS0=      1 NMatT0=    0 NMatD0=    1 NMtDS0=    0 NMtDT0=    0
 Petite list used in FoFCou.
 Keep R1 ints in memory in canonical form, NReq=1064033884.
 Requested convergence on RMS density matrix=1.00D-08 within 128 cycles.
 Requested convergence on MAX density matrix=1.00D-06.
 Requested convergence on             energy=1.00D-06.
 No special actions if energy rises.
 Defaulting to unpruned grid for atomic number  79.
 Defaulting to unpruned grid for atomic number  79.
 Defaulting to unpruned grid for atomic number  79.
 Defaulting to unpruned grid for atomic number  79.
 Defaulting to unpruned grid for atomic number  79.
 Defaulting to unpruned grid for atomic number  79.
 Defaulting to unpruned grid for atomic number  79.
 Defaulting to unpruned grid for atomic number  79.
 EnCoef did     1 forward-backward iterations
 SCF Done:  E(RB3LYP) =  -1399.76717695     A.U. after   15 cycles
            NFock= 15  Conv=0.48D-08     -V/T= 2.0747

 **********************************************************************

            Population analysis using the SCF density.

 **********************************************************************

 Orbital symmetries:
       Occupied  (A) (A) (A) (A) (A) (A) (A) (A) (A) (A) (A) (A)
                 (A) (A) (A) (A) (A) (A) (A) (A) (A) (A) (A) (A)
                 (A) (A) (A) (A) (A) (A) (A) (A) (A) (A) (A) (A)
                 (A) (A) (A) (A) (A) (A) (A) (A) (A) (A) (A) (A)
                 (A) (A) (A) (A) (A) (A) (A) (A) (A) (A) (A) (A)
                 (A) (A) (A) (A) (A) (A) (A) (A) (A) (A) (A) (A)
                 (A) (A) (A)
       Virtual   (A) (A) (A) (A) (A) (A) (A) (A) (A) (A) (A) (A)
                 (A) (A) (A) (A) (A) (A) (A) (A) (A) (A) (A) (A)
                 (A) (A) (A) (A) (A) (A) (A) (A) (A) (A) (A) (A)
                 (A) (A) (A) (A) (A) (A) (A) (A) (A) (A) (A) (A)
                 (A) (A) (A) (A) (A) (A) (A) (A) (A) (A) (A) (A)
                 (A) (A) (A) (A) (A) (A) (A) (A) (A) (A) (A) (A)
                 (A) (A) (A) (A) (A) (A) (A) (A) (A) (A) (A) (A)
                 (A) (A) (A) (A) (A) (A) (A) (A) (A) (A) (A) (A)
                 (A) (A) (A) (A) (A) (A) (A) (A) (A) (A) (A) (A)
                 (A) (A) (A) (A) (A) (A) (A) (A) (A) (A) (A) (A)
                 (A) (A) (A) (A) (A) (A) (A) (A) (A) (A) (A) (A)
                 (A) (A) (A) (A) (A) (A) (A) (A) (A) (A) (A) (A)
                 (A) (A) (A) (A) (A) (A) (A) (A) (A) (A) (A) (A)
                 (A) (A) (A) (A) (A) (A) (A) (A) (A) (A) (A) (A)
                 (A) (A) (A) (A) (A) (A) (A) (A) (A) (A) (A) (A)
                 (A) (A) (A) (A) (A) (A) (A) (A) (A) (A) (A) (A)
                 (A) (A) (A) (A) (A) (A) (A) (A) (A) (A) (A) (A)
                 (A) (A) (A) (A) (A) (A) (A) (A) (A) (A) (A) (A)
                 (A) (A) (A) (A) (A) (A) (A) (A) (A) (A) (A)
 The electronic state is 1-A.
 Alpha  occ. eigenvalues --  -88.80600 -77.11909 -14.30134 -10.21519 -10.21450
 Alpha  occ. eigenvalues --  -10.21305 -10.20339 -10.19574 -10.19542 -10.19269
 Alpha  occ. eigenvalues --  -10.17443 -10.15045 -10.15010 -10.14778 -10.14488
 Alpha  occ. eigenvalues --   -7.88237  -6.60018  -5.84619  -5.84158  -5.83841
 Alpha  occ. eigenvalues --   -4.76159  -4.76148  -4.75919  -4.16248  -2.30872
 Alpha  occ. eigenvalues --   -2.28839  -2.28669  -0.89226  -0.83205  -0.80721
 Alpha  occ. eigenvalues --   -0.78810  -0.78520  -0.73757  -0.69770  -0.69604
 Alpha  occ. eigenvalues --   -0.65458  -0.64678  -0.64458  -0.57839  -0.56637
 Alpha  occ. eigenvalues --   -0.55170  -0.49846  -0.48797  -0.48340  -0.48010
 Alpha  occ. eigenvalues --   -0.47997  -0.46459  -0.44704  -0.44406  -0.43282
 Alpha  occ. eigenvalues --   -0.41270  -0.40658  -0.40224  -0.40168  -0.39728
 Alpha  occ. eigenvalues --   -0.39175  -0.39021  -0.38330  -0.37457  -0.36208
 Alpha  occ. eigenvalues --   -0.35828  -0.34900  -0.34852  -0.32948  -0.31960
 Alpha  occ. eigenvalues --   -0.31945  -0.29781  -0.29717  -0.29204  -0.27949
 Alpha  occ. eigenvalues --   -0.26895  -0.24764  -0.23208  -0.18845  -0.15730
 Alpha virt. eigenvalues --   -0.01879  -0.01322   0.01926   0.03482   0.03843
 Alpha virt. eigenvalues --    0.04827   0.05213   0.05626   0.07079   0.08572
 Alpha virt. eigenvalues --    0.10177   0.10382   0.10537   0.11453   0.11882
 Alpha virt. eigenvalues --    0.12510   0.13245   0.13874   0.13926   0.14346
 Alpha virt. eigenvalues --    0.15219   0.15466   0.15715   0.16305   0.17212
 Alpha virt. eigenvalues --    0.17956   0.18558   0.19066   0.19514   0.19939
 Alpha virt. eigenvalues --    0.20200   0.20214   0.20859   0.21375   0.22796
 Alpha virt. eigenvalues --    0.23169   0.24946   0.27407   0.30111   0.30940
 Alpha virt. eigenvalues --    0.32552   0.32867   0.36760   0.36949   0.38470
 Alpha virt. eigenvalues --    0.38931   0.40444   0.40990   0.41839   0.43118
 Alpha virt. eigenvalues --    0.44061   0.44486   0.46464   0.48630   0.49040
 Alpha virt. eigenvalues --    0.51261   0.52420   0.54389   0.55801   0.56075
 Alpha virt. eigenvalues --    0.56795   0.57266   0.58509   0.59031   0.59277
 Alpha virt. eigenvalues --    0.60075   0.60999   0.61389   0.62281   0.63053
 Alpha virt. eigenvalues --    0.63829   0.64508   0.64672   0.65148   0.65557
 Alpha virt. eigenvalues --    0.66889   0.67667   0.69309   0.69576   0.72049
 Alpha virt. eigenvalues --    0.72150   0.73926   0.74190   0.76760   0.77018
 Alpha virt. eigenvalues --    0.79085   0.80237   0.81837   0.82495   0.82977
 Alpha virt. eigenvalues --    0.83829   0.84655   0.84947   0.85330   0.86475
 Alpha virt. eigenvalues --    0.86555   0.87299   0.87630   0.88205   0.88961
 Alpha virt. eigenvalues --    0.89340   0.90022   0.91275   0.91937   0.92280
 Alpha virt. eigenvalues --    0.93388   0.94530   0.94927   0.95204   0.96489
 Alpha virt. eigenvalues --    0.97179   0.97908   0.98389   0.98818   0.99286
 Alpha virt. eigenvalues --    0.99477   1.00668   1.01134   1.01813   1.02542
 Alpha virt. eigenvalues --    1.03112   1.03794   1.04746   1.06503   1.08833
 Alpha virt. eigenvalues --    1.11126   1.14202   1.15691   1.16907   1.18219
 Alpha virt. eigenvalues --    1.21272   1.25576   1.28815   1.32097   1.36103
 Alpha virt. eigenvalues --    1.37187   1.39780   1.44251   1.47465   1.47981
 Alpha virt. eigenvalues --    1.48247   1.49918   1.50459   1.52062   1.52903
 Alpha virt. eigenvalues --    1.53466   1.54189   1.56569   1.59504   1.60444
 Alpha virt. eigenvalues --    1.65278   1.68913   1.74052   1.79358   1.81327
 Alpha virt. eigenvalues --    1.82562   1.86617   1.88164   1.89758   1.91035
 Alpha virt. eigenvalues --    1.91387   1.92032   1.93134   1.94398   1.94758
 Alpha virt. eigenvalues --    1.95858   1.96407   1.96977   1.97613   1.98387
 Alpha virt. eigenvalues --    1.98811   1.99427   2.00016   2.00441   2.01174
 Alpha virt. eigenvalues --    2.01338   2.01810   2.02625   2.02890   2.04506
 Alpha virt. eigenvalues --    2.07891   2.09860   2.11898   2.12117   2.12821
 Alpha virt. eigenvalues --    2.15154   2.16913   2.17782   2.20795   2.23030
 Alpha virt. eigenvalues --    2.23840   2.24401   2.26046   2.26698   2.27235
 Alpha virt. eigenvalues --    2.28366   2.28500   2.30205   2.30764   2.31205
 Alpha virt. eigenvalues --    2.31587   2.32245   2.32691   2.32950   2.33515
 Alpha virt. eigenvalues --    2.34389   2.47771   2.49832   2.54300   2.58257
 Alpha virt. eigenvalues --    2.59209   2.61471   2.62560   2.65794   2.66336
 Alpha virt. eigenvalues --    2.69760   2.76320   2.76724   2.78990   2.86851
 Alpha virt. eigenvalues --    2.93614   3.12798   3.42876  15.59498  15.62308
 Alpha virt. eigenvalues --   15.70293  43.16664
          Condensed to atoms (all electrons):
               1          2          3          4          5          6
     1  Au  18.521361   0.323597   0.337007  -0.030955   0.000588  -0.030854
     2  S    0.323597  15.732123  -0.000353   0.000015  -0.000062  -0.000002
     3  P    0.337007  -0.000353  13.586259   0.317427  -0.038391   0.318748
     4  C   -0.030955   0.000015   0.317427   5.230272   0.365521  -0.032828
     5  C    0.000588  -0.000062  -0.038391   0.365521   5.064954  -0.002225
     6  C   -0.030854  -0.000002   0.318748  -0.032828  -0.002225   5.227515
     7  C   -0.000756  -0.000062  -0.038945   0.001813   0.000077   0.364335
     8  C   -0.030480  -0.000028   0.313124  -0.028830   0.001794  -0.030203
     9  C    0.002641   0.000000  -0.026260  -0.004606   0.000083  -0.003652
    10  H    0.004608  -0.000001  -0.030745   0.358668  -0.032755  -0.004799
    11  H   -0.001798  -0.000019  -0.029784   0.370274  -0.027980   0.002148
    12  H   -0.000529   0.000001   0.004935  -0.028919   0.373706  -0.000021
    13  H    0.000397  -0.000005  -0.005663  -0.038237   0.381580   0.001715
    14  H    0.012657  -0.000083  -0.010426  -0.032591   0.383628  -0.000079
    15  H    0.004461  -0.000001  -0.030467  -0.002681  -0.000164   0.355527
    16  H   -0.003820  -0.000026  -0.033497  -0.001574   0.001246   0.373725
    17  H   -0.000411   0.000000   0.004979  -0.000062   0.000000  -0.028136
    18  H   -0.000663  -0.000002  -0.006689   0.000008  -0.000001  -0.038767
    19  H    0.011262  -0.000093  -0.009697   0.000024  -0.000006  -0.032762
    20  H   -0.000997  -0.000030  -0.032782  -0.002831   0.000013   0.002190
    21  H   -0.000918  -0.000032  -0.030797   0.002085  -0.000025  -0.002540
    22  H    0.000460   0.000000  -0.007293   0.002257  -0.000018  -0.000311
    23  H   -0.000135   0.000000   0.004494   0.000043   0.000000   0.000046
    24  H    0.000105   0.000000  -0.007886  -0.000255  -0.000007   0.001672
    25  C   -0.023280   0.270426  -0.000046   0.000000   0.000000   0.000000
    26  C   -0.004477  -0.078784  -0.000057   0.000000   0.000000   0.000000
    27  C    0.000002  -0.071277  -0.000003   0.000000   0.000000   0.000000
    28  C   -0.000283   0.006524   0.000010   0.000000   0.000000   0.000000
    29  H    0.010262  -0.016420  -0.000244   0.000001   0.000000   0.000001
    30  C   -0.000696   0.005286   0.000000   0.000000   0.000000   0.000000
    31  N    0.000314  -0.007805   0.000000   0.000000   0.000000   0.000000
    32  C    0.000149   0.000490   0.000000   0.000000   0.000000   0.000000
    33  H    0.000811  -0.000234   0.000001   0.000000   0.000000   0.000000
    34  H   -0.000039  -0.000244   0.000000   0.000000   0.000000   0.000000
    35  H    0.000850   0.020343   0.000001   0.000000   0.000000   0.000000
    36  H    0.000434   0.000555   0.000000   0.000000   0.000000   0.000000
    37  H   -0.000074   0.000021   0.000000   0.000000   0.000000   0.000000
               7          8          9         10         11         12
     1  Au  -0.000756  -0.030480   0.002641   0.004608  -0.001798  -0.000529
     2  S   -0.000062  -0.000028   0.000000  -0.000001  -0.000019   0.000001
     3  P   -0.038945   0.313124  -0.026260  -0.030745  -0.029784   0.004935
     4  C    0.001813  -0.028830  -0.004606   0.358668   0.370274  -0.028919
     5  C    0.000077   0.001794   0.000083  -0.032755  -0.027980   0.373706
     6  C    0.364335  -0.030203  -0.003652  -0.004799   0.002148  -0.000021
     7  C    5.068070  -0.001581  -0.000915   0.000002  -0.000030   0.000000
     8  C   -0.001581   5.238323   0.349917  -0.003072  -0.001206  -0.000058
     9  C   -0.000915   0.349917   5.060297   0.001402  -0.000214   0.000000
    10  H    0.000002  -0.003072   0.001402   0.563318  -0.029750  -0.003790
    11  H   -0.000030  -0.001206  -0.000214  -0.029750   0.531863  -0.005277
    12  H    0.000000  -0.000058   0.000000  -0.003790  -0.005277   0.553694
    13  H   -0.000019   0.000019  -0.000005  -0.003425   0.004487  -0.030233
    14  H   -0.000006   0.000020  -0.000002   0.003981  -0.003428  -0.026667
    15  H   -0.032557  -0.004884   0.002117   0.003522  -0.000004  -0.000006
    16  H   -0.027267   0.002300   0.000021  -0.000310   0.000028  -0.000059
    17  H    0.374453   0.000010  -0.000002  -0.000003   0.000001   0.000000
    18  H    0.381345   0.001981   0.000329   0.000001   0.000000   0.000000
    19  H    0.384255  -0.000258   0.000025   0.000000   0.000001   0.000000
    20  H    0.000049   0.375023  -0.032754  -0.000196   0.001896  -0.000003
    21  H    0.001465   0.373264  -0.033609  -0.000031   0.000039   0.000001
    22  H    0.000046  -0.036335   0.382216   0.003282   0.000365   0.000004
    23  H   -0.000003  -0.029486   0.378063  -0.000062  -0.000015   0.000000
    24  H    0.000474  -0.036068   0.382374   0.000061   0.000028   0.000000
    25  C    0.000000   0.000001   0.000000   0.000000   0.000000   0.000000
    26  C    0.000000  -0.000008   0.000000   0.000000   0.000000   0.000000
    27  C    0.000000   0.000000   0.000000   0.000000   0.000000   0.000000
    28  C    0.000000   0.000000   0.000000   0.000000   0.000000   0.000000
    29  H   -0.000008  -0.000024   0.000000   0.000000   0.000000   0.000000
    30  C    0.000000   0.000000   0.000000   0.000000   0.000000   0.000000
    31  N    0.000000   0.000000   0.000000   0.000000   0.000000   0.000000
    32  C    0.000000   0.000000   0.000000   0.000000   0.000000   0.000000
    33  H    0.000000   0.000000   0.000000   0.000000   0.000000   0.000000
    34  H    0.000000   0.000000   0.000000   0.000000   0.000000   0.000000
    35  H    0.000000   0.000000   0.000000   0.000000   0.000000   0.000000
    36  H    0.000000   0.000000   0.000000   0.000000   0.000000   0.000000
    37  H    0.000000   0.000000   0.000000   0.000000   0.000000   0.000000
              13         14         15         16         17         18
     1  Au   0.000397   0.012657   0.004461  -0.003820  -0.000411  -0.000663
     2  S   -0.000005  -0.000083  -0.000001  -0.000026   0.000000  -0.000002
     3  P   -0.005663  -0.010426  -0.030467  -0.033497   0.004979  -0.006689
     4  C   -0.038237  -0.032591  -0.002681  -0.001574  -0.000062   0.000008
     5  C    0.381580   0.383628  -0.000164   0.001246   0.000000  -0.000001
     6  C    0.001715  -0.000079   0.355527   0.373725  -0.028136  -0.038767
     7  C   -0.000019  -0.000006  -0.032557  -0.027267   0.374453   0.381345
     8  C    0.000019   0.000020  -0.004884   0.002300   0.000010   0.001981
     9  C   -0.000005  -0.000002   0.002117   0.000021  -0.000002   0.000329
    10  H   -0.003425   0.003981   0.003522  -0.000310  -0.000003   0.000001
    11  H    0.004487  -0.003428  -0.000004   0.000028   0.000001   0.000000
    12  H   -0.030233  -0.026667  -0.000006  -0.000059   0.000000   0.000000
    13  H    0.555536  -0.028887   0.000205   0.003044   0.000003   0.000001
    14  H   -0.028887   0.492057   0.000004  -0.000028   0.000000   0.000000
    15  H    0.000205   0.000004   0.568116  -0.030322  -0.004044  -0.003741
    16  H    0.003044  -0.000028  -0.030322   0.526913  -0.004850   0.004535
    17  H    0.000003   0.000000  -0.004044  -0.004850   0.550668  -0.030176
    18  H    0.000001   0.000000  -0.003741   0.004535  -0.030176   0.561796
    19  H    0.000002  -0.000001   0.004098  -0.003280  -0.026520  -0.028802
    20  H    0.000002  -0.000003  -0.000019  -0.000027   0.000001   0.000007
    21  H    0.000001  -0.000001  -0.000156   0.000012  -0.000044   0.001764
    22  H    0.000003   0.000000   0.000036  -0.000012   0.000000  -0.000007
    23  H    0.000000   0.000000  -0.000080   0.000001   0.000000  -0.000026
    24  H    0.000000   0.000000   0.002705   0.000015  -0.000013   0.001421
    25  C    0.000000   0.000000   0.000000   0.000000   0.000000   0.000000
    26  C    0.000000   0.000000   0.000000   0.000000   0.000000  -0.000001
    27  C    0.000000   0.000000   0.000000   0.000000   0.000000   0.000000
    28  C    0.000000   0.000000   0.000000   0.000000   0.000000   0.000000
    29  H    0.000000   0.000000   0.000000   0.000000   0.000000   0.000002
    30  C    0.000000   0.000000   0.000000   0.000000   0.000000   0.000000
    31  N    0.000000   0.000000   0.000000   0.000000   0.000000   0.000000
    32  C    0.000000   0.000000   0.000000   0.000000   0.000000   0.000000
    33  H    0.000000   0.000000   0.000000   0.000000   0.000000   0.000000
    34  H    0.000000   0.000000   0.000000   0.000000   0.000000   0.000000
    35  H    0.000000   0.000000   0.000000   0.000000   0.000000   0.000000
    36  H    0.000000   0.000000   0.000000   0.000000   0.000000   0.000000
    37  H    0.000000   0.000000   0.000000   0.000000   0.000000   0.000000
              19         20         21         22         23         24
     1  Au   0.011262  -0.000997  -0.000918   0.000460  -0.000135   0.000105
     2  S   -0.000093  -0.000030  -0.000032   0.000000   0.000000   0.000000
     3  P   -0.009697  -0.032782  -0.030797  -0.007293   0.004494  -0.007886
     4  C    0.000024  -0.002831   0.002085   0.002257   0.000043  -0.000255
     5  C   -0.000006   0.000013  -0.000025  -0.000018   0.000000  -0.000007
     6  C   -0.032762   0.002190  -0.002540  -0.000311   0.000046   0.001672
     7  C    0.384255   0.000049   0.001465   0.000046  -0.000003   0.000474
     8  C   -0.000258   0.375023   0.373264  -0.036335  -0.029486  -0.036068
     9  C    0.000025  -0.032754  -0.033609   0.382216   0.378063   0.382374
    10  H    0.000000  -0.000196  -0.000031   0.003282  -0.000062   0.000061
    11  H    0.000001   0.001896   0.000039   0.000365  -0.000015   0.000028
    12  H    0.000000  -0.000003   0.000001   0.000004   0.000000   0.000000
    13  H    0.000002   0.000002   0.000001   0.000003   0.000000   0.000000
    14  H   -0.000001  -0.000003  -0.000001   0.000000   0.000000   0.000000
    15  H    0.004098  -0.000019  -0.000156   0.000036  -0.000080   0.002705
    16  H   -0.003280  -0.000027   0.000012  -0.000012   0.000001   0.000015
    17  H   -0.026520   0.000001  -0.000044   0.000000   0.000000  -0.000013
    18  H   -0.028802   0.000007   0.001764  -0.000007  -0.000026   0.001421
    19  H    0.491084  -0.000009  -0.000106  -0.000002   0.000000  -0.000012
    20  H   -0.000009   0.521725  -0.024875  -0.002973  -0.004064   0.004359
    21  H   -0.000106  -0.024875   0.520875   0.004346  -0.003999  -0.003383
    22  H   -0.000002  -0.002973   0.004346   0.554937  -0.029566  -0.030656
    23  H    0.000000  -0.004064  -0.003999  -0.029566   0.546042  -0.029590
    24  H   -0.000012   0.004359  -0.003383  -0.030656  -0.029590   0.554623
    25  C   -0.000003   0.000000   0.000000   0.000000   0.000000   0.000000
    26  C   -0.000009  -0.000001  -0.000009   0.000000   0.000000   0.000000
    27  C    0.000000   0.000000   0.000000   0.000000   0.000000   0.000000
    28  C    0.000000   0.000000  -0.000002   0.000000   0.000000   0.000000
    29  H   -0.000016  -0.000003   0.000103   0.000000   0.000000   0.000000
    30  C    0.000000   0.000000   0.000000   0.000000   0.000000   0.000000
    31  N    0.000000   0.000000   0.000000   0.000000   0.000000   0.000000
    32  C    0.000000   0.000000   0.000000   0.000000   0.000000   0.000000
    33  H    0.000000   0.000000   0.000000   0.000000   0.000000   0.000000
    34  H    0.000000   0.000000   0.000000   0.000000   0.000000   0.000000
    35  H    0.000000   0.000000   0.000000   0.000000   0.000000   0.000000
    36  H    0.000000   0.000000   0.000000   0.000000   0.000000   0.000000
    37  H    0.000000   0.000000   0.000000   0.000000   0.000000   0.000000
              25         26         27         28         29         30
     1  Au  -0.023280  -0.004477   0.000002  -0.000283   0.010262  -0.000696
     2  S    0.270426  -0.078784  -0.071277   0.006524  -0.016420   0.005286
     3  P   -0.000046  -0.000057  -0.000003   0.000010  -0.000244   0.000000
     4  C    0.000000   0.000000   0.000000   0.000000   0.000001   0.000000
     5  C    0.000000   0.000000   0.000000   0.000000   0.000000   0.000000
     6  C    0.000000   0.000000   0.000000   0.000000   0.000001   0.000000
     7  C    0.000000   0.000000   0.000000   0.000000  -0.000008   0.000000
     8  C    0.000001  -0.000008   0.000000   0.000000  -0.000024   0.000000
     9  C    0.000000   0.000000   0.000000   0.000000   0.000000   0.000000
    10  H    0.000000   0.000000   0.000000   0.000000   0.000000   0.000000
    11  H    0.000000   0.000000   0.000000   0.000000   0.000000   0.000000
    12  H    0.000000   0.000000   0.000000   0.000000   0.000000   0.000000
    13  H    0.000000   0.000000   0.000000   0.000000   0.000000   0.000000
    14  H    0.000000   0.000000   0.000000   0.000000   0.000000   0.000000
    15  H    0.000000   0.000000   0.000000   0.000000   0.000000   0.000000
    16  H    0.000000   0.000000   0.000000   0.000000   0.000000   0.000000
    17  H    0.000000   0.000000   0.000000   0.000000   0.000000   0.000000
    18  H    0.000000  -0.000001   0.000000   0.000000   0.000002   0.000000
    19  H   -0.000003  -0.000009   0.000000   0.000000  -0.000016   0.000000
    20  H    0.000000  -0.000001   0.000000   0.000000  -0.000003   0.000000
    21  H    0.000000  -0.000009   0.000000  -0.000002   0.000103   0.000000
    22  H    0.000000   0.000000   0.000000   0.000000   0.000000   0.000000
    23  H    0.000000   0.000000   0.000000   0.000000   0.000000   0.000000
    24  H    0.000000   0.000000   0.000000   0.000000   0.000000   0.000000
    25  C    5.066085   0.516182   0.514231  -0.034151  -0.048560  -0.053111
    26  C    0.516182   4.955403  -0.001812   0.520141   0.358024  -0.050649
    27  C    0.514231  -0.001812   4.556270  -0.040621   0.003503   0.532932
    28  C   -0.034151   0.520141  -0.040621   4.891230  -0.045555  -0.036408
    29  H   -0.048560   0.358024   0.003503  -0.045555   0.599598   0.000941
    30  C   -0.053111  -0.050649   0.532932  -0.036408   0.000941   4.985445
    31  N   -0.076280   0.005160   0.329619   0.000531  -0.000122  -0.072254
    32  C   -0.039655  -0.018596  -0.007695   0.549694   0.004760   0.549314
    33  H    0.004635  -0.044201   0.000823   0.356898  -0.006606   0.004796
    34  H    0.006283   0.000487  -0.045553   0.004962   0.000015   0.346419
    35  H   -0.014398   0.000270  -0.024465  -0.000023   0.000000   0.005550
    36  H    0.006799  -0.000068  -0.027516  -0.000007   0.000005  -0.010070
    37  H    0.000861   0.004880   0.004014  -0.043770  -0.000196  -0.041281
              31         32         33         34         35         36
     1  Au   0.000314   0.000149   0.000811  -0.000039   0.000850   0.000434
     2  S   -0.007805   0.000490  -0.000234  -0.000244   0.020343   0.000555
     3  P    0.000000   0.000000   0.000001   0.000000   0.000001   0.000000
     4  C    0.000000   0.000000   0.000000   0.000000   0.000000   0.000000
     5  C    0.000000   0.000000   0.000000   0.000000   0.000000   0.000000
     6  C    0.000000   0.000000   0.000000   0.000000   0.000000   0.000000
     7  C    0.000000   0.000000   0.000000   0.000000   0.000000   0.000000
     8  C    0.000000   0.000000   0.000000   0.000000   0.000000   0.000000
     9  C    0.000000   0.000000   0.000000   0.000000   0.000000   0.000000
    10  H    0.000000   0.000000   0.000000   0.000000   0.000000   0.000000
    11  H    0.000000   0.000000   0.000000   0.000000   0.000000   0.000000
    12  H    0.000000   0.000000   0.000000   0.000000   0.000000   0.000000
    13  H    0.000000   0.000000   0.000000   0.000000   0.000000   0.000000
    14  H    0.000000   0.000000   0.000000   0.000000   0.000000   0.000000
    15  H    0.000000   0.000000   0.000000   0.000000   0.000000   0.000000
    16  H    0.000000   0.000000   0.000000   0.000000   0.000000   0.000000
    17  H    0.000000   0.000000   0.000000   0.000000   0.000000   0.000000
    18  H    0.000000   0.000000   0.000000   0.000000   0.000000   0.000000
    19  H    0.000000   0.000000   0.000000   0.000000   0.000000   0.000000
    20  H    0.000000   0.000000   0.000000   0.000000   0.000000   0.000000
    21  H    0.000000   0.000000   0.000000   0.000000   0.000000   0.000000
    22  H    0.000000   0.000000   0.000000   0.000000   0.000000   0.000000
    23  H    0.000000   0.000000   0.000000   0.000000   0.000000   0.000000
    24  H    0.000000   0.000000   0.000000   0.000000   0.000000   0.000000
    25  C   -0.076280  -0.039655   0.004635   0.006283  -0.014398   0.006799
    26  C    0.005160  -0.018596  -0.044201   0.000487   0.000270  -0.000068
    27  C    0.329619  -0.007695   0.000823  -0.045553  -0.024465  -0.027516
    28  C    0.000531   0.549694   0.356898   0.004962  -0.000023  -0.000007
    29  H   -0.000122   0.004760  -0.006606   0.000015   0.000000   0.000005
    30  C   -0.072254   0.549314   0.004796   0.346419   0.005550  -0.010070
    31  N    6.987805   0.004884   0.000005  -0.008982   0.304904   0.311760
    32  C    0.004884   4.832631  -0.043848  -0.042548  -0.000128  -0.000047
    33  H    0.000005  -0.043848   0.629707  -0.000204   0.000000   0.000000
    34  H   -0.008982  -0.042548  -0.000204   0.637301  -0.000106   0.006313
    35  H    0.304904  -0.000128   0.000000  -0.000106   0.392874  -0.027750
    36  H    0.311760  -0.000047   0.000000   0.006313  -0.027750   0.429324
    37  H   -0.000125   0.354699  -0.005895  -0.006545   0.000003  -0.000014
              37
     1  Au  -0.000074
     2  S    0.000021
     3  P    0.000000
     4  C    0.000000
     5  C    0.000000
     6  C    0.000000
     7  C    0.000000
     8  C    0.000000
     9  C    0.000000
    10  H    0.000000
    11  H    0.000000
    12  H    0.000000
    13  H    0.000000
    14  H    0.000000
    15  H    0.000000
    16  H    0.000000
    17  H    0.000000
    18  H    0.000000
    19  H    0.000000
    20  H    0.000000
    21  H    0.000000
    22  H    0.000000
    23  H    0.000000
    24  H    0.000000
    25  C    0.000861
    26  C    0.004880
    27  C    0.004014
    28  C   -0.043770
    29  H   -0.000196
    30  C   -0.041281
    31  N   -0.000125
    32  C    0.354699
    33  H   -0.005895
    34  H   -0.006545
    35  H    0.000003
    36  H   -0.000014
    37  H    0.623988
 Mulliken charges:
               1
     1  Au  -0.100800
     2  S   -0.183814
     3  P    0.453041
     4  C   -0.444038
     5  C   -0.471556
     6  C   -0.440444
     7  C   -0.474234
     8  C   -0.453254
     9  C   -0.457463
    10  H    0.170094
    11  H    0.188376
    12  H    0.163221
    13  H    0.159478
    14  H    0.209854
    15  H    0.168337
    16  H    0.193233
    17  H    0.164149
    18  H    0.155686
    19  H    0.210824
    20  H    0.196300
    21  H    0.196575
    22  H    0.159221
    23  H    0.168335
    24  H    0.160032
    25  C   -0.096017
    26  C   -0.161874
    27  C    0.277550
    28  C   -0.129170
    29  H    0.140540
    30  C   -0.166214
    31  N   -0.779414
    32  C   -0.144103
    33  H    0.103315
    34  H    0.102442
    35  H    0.342076
    36  H    0.310283
    37  H    0.109434
 Sum of Mulliken charges =   0.00000
 Mulliken charges with hydrogens summed into heavy atoms:
               1
     1  Au  -0.100800
     2  S   -0.183814
     3  P    0.453041
     4  C   -0.085568
     5  C    0.060997
     6  C   -0.078875
     7  C    0.056425
     8  C   -0.060379
     9  C    0.030124
    25  C   -0.096017
    26  C   -0.021335
    27  C    0.277550
    28  C   -0.025855
    30  C   -0.063771
    31  N   -0.127054
    32  C   -0.034669
 Electronic spatial extent (au):  <R**2>=           7686.9300
 Charge=              0.0000 electrons
 Dipole moment (field-independent basis, Debye):
    X=             -8.7993    Y=              1.7569    Z=             -1.6347  Tot=              9.1206
 Quadrupole moment (field-independent basis, Debye-Ang):
   XX=           -110.9545   YY=           -125.7180   ZZ=           -131.6080
   XY=             -4.7770   XZ=             -5.5571   YZ=              2.8143
 Traceless Quadrupole moment (field-independent basis, Debye-Ang):
   XX=             11.8057   YY=             -2.9579   ZZ=             -8.8478
   XY=             -4.7770   XZ=             -5.5571   YZ=              2.8143
 Octapole moment (field-independent basis, Debye-Ang**2):
  XXX=            -73.3502  YYY=            -55.7384  ZZZ=              4.4505  XYY=            -26.3581
  XXY=            -43.1363  XXZ=            -37.7380  XZZ=            -49.6307  YZZ=            -18.1684
  YYZ=             -8.7076  XYZ=             12.2351
 Hexadecapole moment (field-independent basis, Debye-Ang**3):
 XXXX=          -7391.0844 YYYY=          -1705.5448 ZZZZ=           -672.9924 XXXY=           -157.2317
 XXXZ=           -181.7984 YYYX=            -20.3897 YYYZ=              3.5993 ZZZX=             -5.7708
 ZZZY=              5.7094 XXYY=          -1530.1888 XXZZ=          -1490.0703 YYZZ=           -415.6754
 XXYZ=             64.0788 YYXZ=            -19.9011 ZZXY=            -22.6728
 N-N= 1.502642653932D+03 E-N=-6.261213000707D+03  KE= 1.302502003708D+03
   1 Symmetry operations used in ECPInt.
 ECPInt:  NShTT=    7021 NPrTT=   38313 LenC2=    6020 LenP2D=   19842.
 LDataN:  DoStor=T MaxTD1= 8 Len=  415
 Calling FoFJK, ICntrl=      2127 FMM=F ISym2X=0 I1Cent= 0 IOpClX= 0 NMat=1 NMatS=1 NMatT=0.
 Defaulting to unpruned grid for atomic number  79.
 Defaulting to unpruned grid for atomic number  79.
 Defaulting to unpruned grid for atomic number  79.
 Defaulting to unpruned grid for atomic number  79.
 Defaulting to unpruned grid for atomic number  79.
 Defaulting to unpruned grid for atomic number  79.
 Defaulting to unpruned grid for atomic number  79.
 Defaulting to unpruned grid for atomic number  79.
 ***** Axes restored to original set *****
 -------------------------------------------------------------------
 Center     Atomic                   Forces (Hartrees/Bohr)
 Number     Number              X              Y              Z
 -------------------------------------------------------------------
      1       79           0.005126430   -0.001242439   -0.001104341
      2       16          -0.007766913   -0.007841727    0.002004879
      3       15           0.012340013   -0.004554550    0.001784817
      4        6          -0.005119324    0.000610246   -0.003820118
      5        6          -0.000033540   -0.003656041    0.000434689
      6        6          -0.006129552   -0.000941965    0.002399070
      7        6           0.001377420    0.002020108    0.002730070
      8        6           0.001088106    0.003253096   -0.002593067
      9        6          -0.002099329    0.002781897   -0.001475194
     10        1          -0.001711433   -0.000878878   -0.000929481
     11        1          -0.000295214   -0.000795522   -0.000745156
     12        1          -0.000373200   -0.000852305    0.000020444
     13        1          -0.000087570   -0.000301987    0.000671272
     14        1          -0.000058270   -0.000217339    0.000124435
     15        1          -0.001454895    0.000557955    0.001608111
     16        1          -0.000044316   -0.000009583    0.000877100
     17        1           0.000033884    0.000549310    0.000735934
     18        1           0.000103203    0.000760907   -0.000016971
     19        1           0.000089489    0.000099854    0.000203452
     20        1           0.000386651    0.000864165   -0.000641400
     21        1           0.000237299    0.000700488   -0.000717348
     22        1          -0.000781512   -0.000191834   -0.000328706
     23        1          -0.001021872    0.000726567   -0.000388199
     24        1          -0.000547827    0.000298119    0.000395987
     25        6           0.001163152    0.005882616   -0.000502158
     26        6          -0.000920924    0.001085129    0.000223115
     27        6          -0.000292334    0.001845094   -0.000285514
     28        6          -0.000692390    0.002239411   -0.000241568
     29        1           0.000213604    0.000261568    0.000246535
     30        6           0.002187340    0.000782907   -0.000520624
     31        7           0.001340486   -0.004525530    0.001902504
     32        6           0.001452703    0.001771670   -0.000214986
     33        1           0.000031793    0.000691445    0.000002257
     34        1           0.000635304   -0.000125538    0.000126613
[...]
 677,0.00001228,-0.00002662,-0.00001491,-0.00000337,0.00001132,-0.00003
 508,-0.00000315,-0.00000363,0.00001215,0.00001177,-0.00000853,-0.00001
 292,-0.00001090,-0.00000723,0.00000440,0.00000217,0.00000334,-0.000000
 87,0.00000108,-0.00000098,-0.00000145,0.,0.00000103,-0.00000018,0.0000
 0387,-0.00000081,-0.00000646,0.00001121,0.00001588,0.00000638,0.000004
 46,-0.00000118,-0.00000103,0.00000652,0.00000222,-0.00000992,0.0000072
 1,-0.00001366,-0.00000199,-0.00002482,-0.00000042,-0.00000079,-0.00000
 218,0.00000483,-0.00000102,0.00000176,-0.00000140,0.00000341,0.0000013
 1,0.00000325,-0.00000782,0.00000329,-0.00000692,-0.00000448,-0.0000017
 8,0.00000182,0.00259722,-0.00387335,0.00362928,-0.00050572,-0.01422718
 ,-0.01284296,-0.00072860,-0.00014961,0.00046655,-0.04476090,-0.0394531
 6,-0.01044743,-0.00209491,0.00190912,-0.00147740,0.00262513,-0.0021919
 3,0.00430574,-0.00025134,0.00028066,-0.00021991,0.00354953,0.01369353,
 0.00732462,0.04098912,0.00012150,-0.00014215,0.00004777,-0.00057767,-0
 .00070594,-0.00041488,0.00022678,-0.00004479,0.00005089,-0.00005066,0.
 00003874,0.00000187,0.00001104,-0.00000402,-0.00000791,-0.00005321,0.0
 0001546,-0.00004702,-0.00001422,-0.00000878,0.00000887,-0.00008465,0.0
 0000302,-0.00000425,0.00002783,0.00001817,-0.00002244,-0.00002230,-0.0
 0001733,-0.00001201,0.00000856,0.00000232,0.00000675,-0.00000794,-0.00
 000525,-0.00000299,-0.00000180,0.00000325,0.00000435,0.00000159,0.0000
 1400,-0.00000051,-0.00002153,0.00001939,0.00002660,0.00000697,0.000001
 46,-0.00000114,-0.00000945,0.00000967,0.00000757,-0.00000099,0.0000022
 3,-0.00000902,0.00000163,-0.00001869,-0.00001490,0.00000150,-0.0000018
 5,0.00000858,0.00000260,-0.00000802,0.00000104,-0.00000261,-0.00000249
 ,0.00000197,-0.00001279,0.00001028,-0.00001119,-0.00000637,-0.00000088
 ,0.00000499,-0.00433037,0.00023516,0.00148417,-0.00072224,-0.01613499,
 -0.01544166,-0.00019398,-0.00004055,0.00079522,-0.03918814,-0.23491492
 ,-0.13546564,0.00156354,0.00011450,0.00115479,-0.00149181,0.00250488,-
 0.00093464,0.00031198,-0.00000551,-0.00006598,0.00000449,0.00136877,0.
 00137273,0.04313412,0.24760878,0.00005692,0.00004562,0.00002656,0.0002
 3104,0.00031471,0.00024636,0.00003703,-0.00004825,0.00000915,-0.000016
 78,0.00001556,-0.00000658,0.00000398,0.00000025,0.00000133,-0.00001172
 ,0.00000874,-0.00001708,-0.00000010,-0.00000802,0.00000937,-0.00002197
 ,-0.00000481,-0.00000582,0.00000824,0.00000760,-0.00000245,-0.00000750
 ,-0.00000577,-0.00000330,0.00000278,0.00000109,0.00000258,-0.00000046,
 0.00000016,-0.00000114,-0.00000023,0.00000041,0.00000101,-0.00000092,0
 .00000295,-0.00000097,-0.00000547,0.00000421,0.00000716,0.00000428,0.0
 0000274,-0.00000050,0.00000011,0.00000312,0.00000159,-0.00000556,0.000
 00441,-0.00000874,-0.00000078,-0.00000790,0.00000121,0.00000166,-0.000
 00002,0.00000462,0.00000026,-0.00000088,-0.00000003,0.00000209,0.00000
 101,0.00000149,-0.00000488,0.00000202,-0.00000658,-0.00000381,-0.00000
 138,0.00000211,0.00313680,0.00038502,0.00115520,0.00109850,0.01027358,
 0.00875054,0.00049112,0.00083253,-0.00041873,-0.01034909,-0.13543847,-
 0.14729340,-0.00183710,0.00045818,-0.00000575,0.00503935,0.00054164,-0
 .00279610,-0.00045052,-0.00009717,0.00015248,-0.00657694,-0.02416945,-
 0.01214999,0.01052061,0.14700740,0.15282127,0.00005573,-0.00004751,0.0
 0013767,-0.00064667,-0.00008654,0.00036769,0.00014190,-0.00006313,0.00
 004767,-0.00003718,0.00003437,-0.00000922,0.00000704,-0.00000162,-0.00
 000177,-0.00002924,0.00002036,-0.00003060,0.00000435,-0.00000788,0.000
 00779,-0.00006377,0.00001373,0.00000012,0.00002019,0.00001679,-0.00002
 023,-0.00001542,-0.00001406,-0.00000727,0.00000230,-0.00000238,0.00000
 006,-0.00000490,-0.00000194,-0.00000163,0.00000185,0.00000173,-0.00000
 128,0.00000018,0.00000701,0.00000200,-0.00001468,0.00000644,0.00001196
 ,0.00000746,-0.00000229,-0.00000521,-0.00000294,0.00000238,0.00000070,
 -0.00000054,0.00000419,-0.00000313,-0.00000085,-0.00000292,-0.00000637
 ,-0.00000930,-0.00001384,-0.00000444,-0.00000536,0.00000152,0.00001387
 ,-0.00000032,-0.00000182,0.00000333,-0.00001534,0.00001266,-0.00000862
 ,0.00000363,-0.00000377,-0.00000026,0.00228749,-0.00438786,0.00169396,
 -0.00034113,-0.00057291,-0.00042183,-0.00479198,0.00237760,0.01740761,
 0.00442801,-0.00260800,0.00103958,-0.00050180,0.00034643,-0.00024446,-
 0.09903115,-0.00192287,0.12096658,-0.00115545,0.00208143,-0.00014310,0
 .00368542,-0.00002889,-0.00521342,0.00062911,-0.00033548,0.00000506,0.
 09829060,0.00005093,-0.00003540,0.00004260,-0.00073482,-0.00033349,0.0
 0097076,0.00007626,-0.00002053,0.00000684,-0.00001325,0.00000768,0.000
 00333,0.00000086,-0.00000027,-0.00000467,-0.00001172,0.00000062,-0.000
 00928,-0.00000518,-0.00000040,-0.00000006,-0.00002350,0.00000029,-0.00
 000071,0.00000597,0.00000664,-0.00000502,-0.00000477,-0.00000448,-0.00
 000289,0.00000105,0.00000242,0.00000073,-0.00000298,-0.00000209,-0.000
 00044,0.00000116,-0.00000030,0.00000087,0.00000106,0.00000390,0.000002
 68,-0.00000396,0.00000611,0.00000543,0.00000262,0.00000099,0.00000100,
 -0.00000114,0.00000224,0.00000185,-0.00000153,0.00000072,-0.00000256,-
 0.00000010,-0.00000726,-0.00000143,0.00000140,0.00000235,0.00000444,0.
 00000115,-0.00000255,-0.00000380,-0.00000127,-0.00000124,0.00000023,-0
 .00000135,0.00000075,-0.00000097,-0.00000221,0.00000018,0.00000125,-0.
 00379869,-0.00199412,-0.00040333,-0.00046304,-0.00128372,-0.00003062,-
 0.01133574,0.00460230,0.02186599,-0.00329537,-0.00278870,-0.00321799,0
 .00033764,0.00001294,0.00013945,-0.00231153,-0.05566731,-0.02022188,0.
 00187431,0.00124147,0.00125792,0.01402119,0.00256472,-0.02364040,0.000
 40542,0.00012658,-0.00143202,0.00414886,0.05352879,-0.00012324,0.00008
 714,-0.00001364,0.00019480,0.00011940,-0.00015567,-0.00015895,0.000029
 20,-0.00006971,0.00004005,-0.00003395,0.00000246,-0.00000708,0.0000031
 3,0.00000804,0.00004653,-0.00001485,0.00003932,-0.00000501,0.00001008,
 -0.00000556,0.00006661,-0.00000718,0.00000132,-0.00002264,-0.00001399,
 0.00001788,0.00001851,0.00001578,0.00000968,-0.00000397,0.00000133,-0.
 00000154,0.00000923,0.00000630,0.00000283,-0.00000215,-0.00000280,-0.0
 0000126,-0.00000111,-0.00001390,-0.00000297,0.00002098,-0.00001085,-0.
 00001610,-0.00000855,0.00000220,0.00000187,0.00000549,-0.00000385,-0.0
 0000414,-0.00000322,-0.00000092,0.00000203,0.00000051,0.00000171,0.000
 01042,0.00000078,0.00000446,-0.00000266,-0.00000083,0.00000788,-0.0000
 0710,0.00000478,0.00000380,-0.00000140,0.00001168,-0.00001212,0.000008
 84,0.00000045,0.00000207,-0.00000216,0.00219821,0.00069538,0.00211743,
 -0.00031624,0.00014479,0.00051198,0.00421381,-0.00407482,-0.00799582,0
 .00043012,-0.00459047,0.00131502,-0.00021769,0.00016773,-0.00023217,0.
 12026196,-0.01950138,-0.26732726,-0.00244228,0.00027601,0.00132524,0.0
 0866498,0.00153838,-0.01341575,0.00075771,-0.00007615,-0.00065708,-0.1
 3249071,0.02357943,0.28443527,-0.00018133,0.00049677,0.00045400,-0.000
 62669,0.00060678,-0.00062850,-0.00056347,0.00009341,-0.00033560,0.0000
 4527,-0.00004543,0.00000858,-0.00001505,0.00000759,0.00001134,0.000138
 13,-0.00004184,0.00010500,0.00001002,0.00002356,-0.00001545,0.00010374
 ,0.00001212,0.00002411,-0.00004258,-0.00002741,0.00001883,0.00003649,0
 .00002021,0.00000914,-0.00001254,0.00000256,-0.00002260,0.00002289,0.0
 0001518,0.00000949,0.00000222,-0.00000881,-0.00000687,-0.00000364,-0.0
 0003964,0.00000745,0.00005317,-0.00004073,-0.00004853,-0.00002079,0.00
 000057,0.00000626,0.00001536,-0.00001607,-0.00001339,-0.00000171,-0.00
 000447,0.00001032,0.00000182,0.00002282,0.00002790,0.00000008,-0.00000
 397,-0.00000651,0.00000825,0.00001345,-0.00000899,0.00000959,0.0000073
 7,-0.00000162,0.00002018,-0.00002077,0.00001985,0.00001199,0.00000103,
 -0.00000680,0.00003533,0.00043690,0.00138997,-0.00065986,-0.00014514,0
 .00004652,-0.00228675,0.00241664,-0.00307151,-0.00008030,-0.00003402,-
 0.00007780,0.00007457,0.00015617,0.00000984,0.00121626,0.00063770,0.00
 058728,-0.26124577,-0.21192943,0.08937946,0.00129319,-0.00045584,0.000
 69057,-0.00007015,-0.00000719,-0.00001252,-0.00050178,0.00035014,-0.00
 010455,0.26345089,0.00001381,-0.00028016,-0.00018799,0.00064221,-0.000
 00315,0.00063997,0.00025980,0.00009116,0.00009474,-0.00002832,0.000025
 15,0.00002319,-0.00002560,-0.00000173,-0.00004142,-0.00007908,-0.00001
 132,-0.00004811,0.00000267,-0.00000821,-0.00000126,-0.00007509,-0.0000
 2673,-0.00002651,0.00002128,0.00001233,0.00000041,-0.00001359,-0.00002
 758,-0.00001187,-0.00000380,0.00000907,-0.00000867,-0.00002842,-0.0000
 1678,-0.00000197,0.00001525,-0.00000413,0.00000293,0.00000616,0.000033
 42,0.00002498,-0.00002479,0.00002239,0.00002058,0.00000529,0.00000092,
 0.00000893,-0.00000764,0.00000397,0.00000636,0.00000394,-0.00000572,-0
 .00000050,0.00000285,-0.00000199,-0.00000897,0.00002121,0.00002706,0.0
 0000978,0.00000624,-0.00002391,-0.00000385,-0.00001401,-0.00000511,-0.
 00000542,-0.00000526,0.00000657,-0.00000730,-0.00001143,0.00000321,0.0
 0000302,-0.00033383,0.00056758,0.00286539,-0.00022662,-0.00088979,0.00
 026341,-0.02539900,-0.02754571,0.00494037,0.00002112,0.00064198,0.0004
 3385,0.00002803,0.00016161,0.00008142,0.00057381,-0.00089495,-0.005209
 41,-0.17709227,-0.15965129,0.04179039,-0.00142946,-0.00105946,0.000379
 50,0.00003846,-0.00001209,0.00000475,0.00018196,-0.00000646,0.00023949
 ,0.20145713,0.19094814,0.00117810,-0.00029501,0.00000153,-0.00095905,0
 .00129241,0.00014958,0.00067038,-0.00034674,0.00038389,-0.00021074,0.0
 0015459,-0.00001338,0.00001400,0.00000741,-0.00003071,-0.00019196,0.00
 009077,-0.00015614,0.00000424,-0.00002995,0.00002864,-0.00017763,0.000
 01970,0.00001334,0.00006960,0.00005507,-0.00005705,-0.00007811,-0.0000
 7647,-0.00003847,0.00001405,0.00000921,-0.00000188,-0.00002594,-0.0000
 1941,-0.00000241,0.00000924,0.00000560,-0.00000209,0.00001402,0.000032
 96,0.00001491,-0.00007835,0.00004645,0.00007060,0.00003804,-0.00001070
 ,-0.00000939,-0.00001842,0.00001254,0.00000735,-0.00000249,0.00001515,
 -0.00002034,-0.00000591,-0.00003379,-0.00003557,-0.00001038,-0.0000230
 0,-0.00000381,-0.00000516,-0.00000717,0.00001684,-0.00000834,-0.000010
 06,0.00001065,-0.00003606,0.00003441,-0.00002611,0.00000335,-0.0000130
 8,0.00000467,-0.00082813,-0.00287597,-0.00198897,0.00006186,0.00025267
 ,0.00016252,-0.01892760,-0.00492134,0.01286154,0.00031409,-0.00032566,
 -0.00096173,-0.00003720,-0.00016400,-0.00014106,0.00002232,-0.00533725
 ,-0.00315068,0.07511056,0.03651659,-0.08854622,0.00015086,0.00019489,0
 .00200788,0.00004961,0.00005424,-0.00005542,-0.00033633,0.00009188,0.0
 0001858,-0.08361099,-0.04581678,0.08384763,0.00020766,0.00011561,0.000
 04344,-0.00092203,0.00063282,0.00173600,-0.00012291,-0.00010296,0.0000
 2869,-0.00000765,0.00000620,-0.00000866,0.00000475,0.00000104,0.000013
 89,0.00003189,0.00001548,0.00001609,0.00000504,0.00000800,0.00000208,0
 .00002708,0.00002606,0.00002912,-0.00001258,0.00000038,-0.00001468,0.0
 0000830,0.00000251,0.00000002,-0.00001448,-0.00000754,-0.00001137,0.00
 001174,0.00001146,0.00000434,0.00000062,-0.00000165,-0.00000869,-0.000
 00095,-0.00001763,0.00000206,0.00001299,-0.00001199,-0.00001036,0.0000
 0273,-0.00000305,-0.00000712,0.00000765,-0.00000634,-0.00001028,-0.000
 00773,0.00000788,0.00000020,-0.00000261,-0.00000297,0.00001177,-0.0000
 3848,-0.00000504,-0.00003623,-0.00001035,0.00002042,0.00000809,0.00000
 885,0.00000430,0.00000564,-0.00000253,-0.00000234,0.00000686,0.0000169
 5,-0.00000726,-0.00000530,0.00160990,-0.00186546,-0.00169586,0.0009966
 0,0.00068915,0.00173656,-0.00317630,0.01143175,0.00307876,-0.00045803,
 -0.00119296,-0.00037365,-0.00000026,0.00014855,-0.00007095,-0.00052299
 ,-0.00189520,-0.00159312,-0.02521071,-0.03836120,0.01470789,-0.0005278
 5,0.00085136,-0.00016798,-0.00000218,-0.00000489,0.00008439,-0.0002380
 4,-0.00075240,0.00086000,-0.00023134,0.00141169,0.02796850,0.02856141,
 0.00018070,-0.00013579,-0.00002683,-0.00092939,0.00058392,0.00100074,0
 .00027495,-0.00000383,0.00009658,-0.00006114,0.00003874,0.00001558,-0.
 00000322,-0.00000087,-0.00002589,-0.00007456,0.00000419,-0.00004594,0.
 00000263,-0.00000918,0.00000279,-0.00006391,-0.00001362,-0.00000640,0.
 00002410,0.00001176,-0.00000619,-0.00002438,-0.00002533,-0.00001342,0.
 00000796,0.00000854,0.00000093,-0.00002066,-0.00001520,-0.00000095,0.0
 0000479,0.00000158,0.00000075,0.00000831,0.00002378,0.00000969,-0.0000
 2740,0.00001924,0.00002179,0.00000639,0.00000014,0.00000411,-0.0000102
 2,0.00000479,0.00000653,0.00000453,-0.00000285,-0.00000271,0.00000021,
 -0.00000565,-0.00001710,0.00002666,0.00001370,0.00002140,0.00001128,-0
 .00002321,-0.00001088,-0.00001337,-0.00000658,-0.00000158,-0.00000380,
 0.00000858,-0.00000628,-0.00000851,0.00000078,0.00000313,-0.00305219,-
 0.00488291,-0.00166931,0.00099926,0.00009372,-0.00134359,0.00712599,0.
 00226736,-0.03730929,-0.00009115,0.00046171,0.00007798,0.00003449,-0.0
 0046487,-0.00021859,0.00213279,0.00145764,-0.00085911,-0.04053488,-0.0
 5741101,0.06946350,0.00016751,-0.00042391,0.00027067,-0.00001844,-0.00
 002113,0.00009410,-0.00096951,-0.00013109,0.00075137,0.00597364,-0.001
 72654,0.02170838,0.02889066,0.06026626,0.00000776,0.00000807,-0.000054
 18,0.00003571,-0.00037674,-0.00028176,0.00000352,0.00000909,0.00000078
 ,-0.00000223,0.00000185,0.00000025,0.00000278,-0.00000133,0.00000074,-
 0.00000385,-0.00000052,-0.00000314,-0.00000128,-0.00000013,0.00000060,
 -0.00000851,0.00000017,0.00000049,0.00000350,-0.00000073,0.00000065,-0
 .00000197,0.00000044,-0.00000022,0.00000336,-0.00000184,0.00000154,-0.
 00000094,-0.00000127,0.00000014,-0.00000090,0.00000064,-0.00000047,-0.
 00000021,0.00000130,-0.00000145,-0.00000200,0.00000265,0.00000049,0.00
 000252,0.00000052,-0.00000092,-0.00000007,0.00000034,0.00000054,0.0000
 0077,-0.00000046,-0.00000012,-0.00000049,-0.00000094,-0.00000145,0.000
 00815,-0.00000093,0.00000725,0.00000337,-0.00000334,-0.00000229,-0.000
 00262,-0.00000098,0.00000044,-0.00000179,0.00000400,-0.00000142,-0.000
 00109,0.00000012,-0.00000102,-0.00140008,-0.00206336,-0.00026038,0.001
 44186,0.00055476,-0.00023692,0.00059882,0.00522141,-0.01810271,-0.0005
 8146,-0.00004872,0.00095054,-0.00015834,-0.00024053,-0.00006169,0.0012
 7663,0.00287522,0.00238956,0.05054735,0.04769832,-0.43210317,0.0008741
 8,-0.00129677,-0.00072477,-0.00019182,0.00006261,-0.00003989,-0.001232
 84,-0.00028510,0.00001457,-0.00482064,-0.00020312,-0.00415833,-0.04638
 038,-0.05199085,0.45266395,0.00002907,-0.00012004,0.00001036,-0.000526
 14,0.00021286,-0.00024055,0.00012698,-0.00002588,0.00005793,-0.0000222
 4,0.00002400,-0.00000692,0.00000750,-0.00000268,-0.00000012,-0.0000322
 6,0.00001572,-0.00003190,0.00000312,-0.00001246,0.00001023,-0.00005486
 ,0.00000298,-0.00001145,0.00001805,0.00001336,-0.00001289,-0.00001264,
 -0.00000863,-0.00000512,0.00000418,-0.00000144,0.00000261,-0.00000392,
 -0.00000121,-0.00000256,0.00000027,0.00000161,0.00000114,-0.00000022,0
 .00000825,-0.00000009,-0.00001543,0.00000664,0.00001375,0.00000667,0.0
 0000050,-0.00000239,-0.00000344,0.00000386,0.00000250,-0.00000154,0.00
 000388,-0.00000665,-0.00000007,-0.00000464,-0.00000603,-0.00000226,-0.
 00000685,0.00000180,-0.00000256,-0.00000374,0.00001113,0.00000080,0.00
 000011,0.00000201,-0.00001299,0.00000905,-0.00001159,-0.00000191,-0.00
 000273,0.00000230,-0.00014808,0.00070912,-0.00033650,0.00366261,-0.000
 86811,0.00479333,0.00531488,-0.00216088,0.00170819,-0.00523971,-0.0111
 4823,0.00226139,-0.00017198,-0.00065150,0.00022495,-0.00016915,-0.0014
 6278,0.00197908,-0.00001793,-0.00042653,0.00017657,-0.13619761,-0.1283
 0013,0.06153167,-0.00192164,0.00171621,-0.00141787,-0.00215742,0.00148
 453,-0.00189899,-0.00000568,0.00008529,-0.00014400,-0.00000416,0.00002
 989,-0.00001679,0.13755172,0.00009059,0.00002422,0.00003527,0.00011603
 ,-0.00013133,0.00019060,0.00011168,-0.00005042,0.00003261,-0.00003155,
 0.00002519,-0.00000425,0.00000544,-0.00000058,-0.00000490,-0.00002802,
 0.00001138,-0.00002470,0.00000159,-0.00000748,0.00000594,-0.00003680,0
 .00000208,-0.00000153,0.00001451,0.00000795,-0.00000787,-0.00001478,-0
 .00001148,-0.00000677,0.00000500,0.00000009,0.00000355,-0.00000480,-0.
 00000444,-0.00000211,0.00000033,0.00000212,0.00000234,0.00000077,0.000
 00811,-0.00000004,-0.00001347,0.00000767,0.00001042,0.00000541,-0.0000
 0111,-0.00000129,-0.00000493,0.00000363,0.00000379,0.00000208,0.000000
 62,-0.00000240,0.00000024,-0.00000209,-0.00000863,0.00000104,-0.000003
 25,0.00000516,0.00000122,-0.00000519,0.00000345,-0.00000258,-0.0000023
 0,0.00000081,-0.00000686,0.00000746,-0.00000691,-0.00000235,-0.0000007
 2,0.00000216,0.00067913,-0.00008738,-0.00061516,-0.00149704,0.00248042
 ,-0.00153581,-0.00155148,-0.00084238,-0.00505385,0.00225075,0.00472922
 ,-0.00150596,0.00003213,0.00016193,-0.00017778,-0.01513123,-0.01537298
 ,0.01097711,-0.00108726,-0.00088705,0.00068856,-0.12793984,-0.20905278
 ,0.06280849,0.00130208,-0.00000728,0.00120236,0.00181779,0.00016773,0.
 00067023,0.00006906,-0.00035176,-0.00028854,-0.00003446,0.00003714,0.0
 0007615,0.14088060,0.21914500,-0.00005136,-0.00004462,-0.00000111,-0.0
 0018234,0.00031941,0.00005507,-0.00004833,0.00002959,-0.00001865,0.000
 01373,-0.00001017,0.00000094,-0.00000125,-0.00000050,0.00000321,0.0000
 1284,-0.00000536,0.00000915,-0.00000535,0.00000468,-0.00000489,0.00000
 748,0.00000132,-0.00000142,-0.00000463,-0.00000152,0.00000161,0.000006
 00,0.00000509,0.00000304,-0.00000151,-0.00000056,-0.00000136,0.0000021
 5,0.00000242,0.00000082,-0.00000027,-0.00000088,-0.00000114,-0.0000005
 6,-0.00000323,-0.00000025,0.00000573,-0.00000265,-0.00000263,-0.000002
 54,0.00000012,0.00000005,0.00000369,-0.00000104,-0.00000190,-0.0000007
 2,0.00000030,0.00000234,-0.00000151,-0.00000017,0.00000437,-0.00000076
 ,-0.00000170,-0.00000232,-0.00000218,0.00000358,0.00000040,0.00000152,
 0.00000078,0.00000003,0.00000063,-0.00000130,0.00000227,0.00000169,0.0
 0000031,-0.00000179,-0.00030856,-0.00067975,-0.00084062,0.00411423,-0.
 00284967,-0.00378120,0.00217445,-0.00442948,-0.00062045,0.01585894,0.0
 2357843,-0.00390878,0.00095294,0.00116031,-0.00029447,-0.01163163,-0.0
 1392864,0.00932809,-0.00067664,-0.00029086,0.00076062,0.06174461,0.063
 14526,-0.08598582,-0.00184624,0.00042992,0.00027554,-0.00152294,0.0012
 8648,0.00006922,-0.00002301,-0.00025028,-0.00020041,0.00005022,0.00000
 488,0.00000378,-0.06863854,-0.06747051,0.08514864\\0.00000313,0.000003
 61,-0.00000251,0.00000299,0.00000283,-0.00000151,0.00000153,-0.0000066
 3,0.00000615,0.00000198,-0.00000427,0.00000557,0.00000524,-0.00000409,
 0.00000443,0.00000173,-0.00000468,0.00000313,-0.00000106,-0.00000367,0
 .00000275,-0.00000156,-0.00000301,0.00000281,-0.00000438,-0.00000656,0
 .00000376,0.00000086,-0.00000629,0.00000621,0.00000035,-0.00000538,0.0
 0000399,0.00000562,-0.00000644,0.00000683,0.00000642,-0.00000609,0.000
 00654,0.00000639,-0.00000334,0.00000439,0.00000010,-0.00000674,0.00000
 499,0.00000326,-0.00000438,0.00000474,0.00000155,-0.00000354,0.0000034
 8,-0.00000180,-0.00000248,0.00000258,0.00000185,-0.00000098,0.00000143
 ,-0.00000389,-0.00000326,0.00000160,-0.00000455,-0.00000241,0.00000026
 ,-0.00000425,-0.00000666,0.00000469,-0.00000786,-0.00000538,0.00000337
 ,-0.00000532,-0.00000616,0.00000454,0.00000319,0.00000598,-0.00000844,
 0.00000035,0.00000805,-0.00000385,0.00000140,0.00000591,-0.00000515,-0
 .00000147,0.00000860,-0.00000705,0.00000227,0.00000605,-0.00000536,-0.
 00000236,0.00000831,-0.00000735,0.00000151,0.00000702,-0.00000486,-0.0
 0000306,0.00000814,-0.00000797,-0.00000167,0.00000859,-0.00000773,-0.0
 0000378,0.00000908,-0.00000796,0.00000139,0.00000470,-0.00000347,-0.00
 000117,0.00000589,-0.00000553,-0.00000493,0.00000969,-0.00000953\\\@


 "I COULD HAVE DONE IT IN A MUCH MORE COMPLICATED WAY"
 SAID THE RED QUEEN, IMMENSELY PROUD.

                                      -- LEWIS CARROLL
 Job cpu time:       0 days  0 hours 40 minutes 20.1 seconds.
 File lengths (MBytes):  RWF=    431 Int=      0 D2E=      0 Chk=      8 Scr=      1
 Normal termination of Gaussian 09 at Tue May  2 07:17:16 2023.
