 Entering Gaussian System, Link 0=g09
 Input=au-1to3-ts-2-af20-c-term-level3-freq-se-new-p.com
 Output=au-1to3-ts-2-af20-c-term-level3-freq-se-new-p.log
 Initial command:
 /home/scr/programs/g09/l1.exe "/home/scr/guest2/Gau-11408.inp" -scrdir="/home/scr/guest2/"
 Entering Link 1 = /home/scr/programs/g09/l1.exe PID=     11409.
  
 Copyright (c) 1988,1990,1992,1993,1995,1998,2003,2009,2013,
            Gaussian, Inc.  All Rights Reserved.
  
 This is part of the Gaussian(R) 09 program.  It is based on
 the Gaussian(R) 03 system (copyright 2003, Gaussian, Inc.),
 the Gaussian(R) 98 system (copyright 1998, Gaussian, Inc.),
 the Gaussian(R) 94 system (copyright 1995, Gaussian, Inc.),
 the Gaussian 92(TM) system (copyright 1992, Gaussian, Inc.),
 the Gaussian 90(TM) system (copyright 1990, Gaussian, Inc.),
 the Gaussian 88(TM) system (copyright 1988, Gaussian, Inc.),
 the Gaussian 86(TM) system (copyright 1986, Carnegie Mellon
 University), and the Gaussian 82(TM) system (copyright 1983,
 Carnegie Mellon University). Gaussian is a federally registered
 trademark of Gaussian, Inc.
  
 This software contains proprietary and confidential information,
 including trade secrets, belonging to Gaussian, Inc.
  
 This software is provided under written license and may be
 used, copied, transmitted, or stored only in accord with that
 written license.
  
 The following legend is applicable only to US Government
 contracts under FAR:
  
                    RESTRICTED RIGHTS LEGEND
  
 Use, reproduction and disclosure by the US Government is
 subject to restrictions as set forth in subparagraphs (a)
 and (c) of the Commercial Computer Software - Restricted
 Rights clause in FAR 52.227-19.
  
 Gaussian, Inc.
 340 Quinnipiac St., Bldg. 40, Wallingford CT 06492
  
  
 ---------------------------------------------------------------
 Warning -- This program may not be used in any manner that
 competes with the business of Gaussian, Inc. or will provide
 assistance to any competitor of Gaussian, Inc.  The licensee
 of this program is prohibited from giving any competitor of
 Gaussian, Inc. access to this program.  By using this program,
 the user acknowledges that Gaussian, Inc. is engaged in the
 business of creating and licensing software in the field of
 computational chemistry and represents and warrants to the
 licensee that it is not a competitor of Gaussian, Inc. and that
 it will not use this program in any manner prohibited above.
 ---------------------------------------------------------------
  

 Cite this work as:
 Gaussian 09, Revision D.01,
 M. J. Frisch, G. W. Trucks, H. B. Schlegel, G. E. Scuseria, 
 M. A. Robb, J. R. Cheeseman, G. Scalmani, V. Barone, B. Mennucci, 
 G. A. Petersson, H. Nakatsuji, M. Caricato, X. Li, H. P. Hratchian, 
 A. F. Izmaylov, J. Bloino, G. Zheng, J. L. Sonnenberg, M. Hada, 
 M. Ehara, K. Toyota, R. Fukuda, J. Hasegawa, M. Ishida, T. Nakajima, 
 Y. Honda, O. Kitao, H. Nakai, T. Vreven, J. A. Montgomery, Jr., 
 J. E. Peralta, F. Ogliaro, M. Bearpark, J. J. Heyd, E. Brothers, 
 K. N. Kudin, V. N. Staroverov, T. Keith, R. Kobayashi, J. Normand, 
 K. Raghavachari, A. Rendell, J. C. Burant, S. S. Iyengar, J. Tomasi, 
 M. Cossi, N. Rega, J. M. Millam, M. Klene, J. E. Knox, J. B. Cross, 
 V. Bakken, C. Adamo, J. Jaramillo, R. Gomperts, R. E. Stratmann, 
 O. Yazyev, A. J. Austin, R. Cammi, C. Pomelli, J. W. Ochterski, 
 R. L. Martin, K. Morokuma, V. G. Zakrzewski, G. A. Voth, 
 P. Salvador, J. J. Dannenberg, S. Dapprich, A. D. Daniels, 
 O. Farkas, J. B. Foresman, J. V. Ortiz, J. Cioslowski, 
 and D. J. Fox, Gaussian, Inc., Wallingford CT, 2013.
 
 ******************************************
 Gaussian 09:  EM64L-G09RevD.01 24-Apr-2013
                 3-May-2023 
 ******************************************
 %mem=30000MB
 %nprocshared=8
 Will use up to    8 processors via shared memory.
 ----------------------------------------
 # opt freq=noraman b3lyp/gen pseudo=read
 ----------------------------------------
 1/14=-1,18=20,19=15,26=3,38=1/1,3;
 2/9=110,12=2,17=6,18=5,40=1/2;
 3/5=7,11=2,16=1,17=8,25=1,30=1,71=1,74=-5/1,2,3;
 4//1;
 5/5=2,38=5/2;
 6/7=2,8=2,9=2,10=2,28=1/1;
 7//1,2,3,16;
 1/14=-1,18=20,19=15,26=3/3(2);
 2/9=110/2;
 99//99;
 2/9=110/2;
 3/5=7,6=1,11=2,16=1,17=8,25=1,30=1,71=1,74=-5,82=7/1,2,3;
 4/5=5,16=3,69=1/1;
 5/5=2,38=5/2;
 7//1,2,3,16;
 1/14=-1,18=20,19=15,26=3/3(-5);
 2/9=110/2;
 6/7=2,8=2,9=2,10=2,19=2,28=1/1;
 99/9=1/99;
 -------------------
 Title Card Required
 -------------------
 Symbolic Z-matrix:
 Charge =  0 Multiplicity = 1
 Au                    2.50921   0.8961   -0.16056 
 P                     4.66432  -0.05153   0.34186 
 C                     6.05598   0.4671   -0.75689 
 H                     6.99686   0.16767  -0.27784 
 H                     6.03888   1.564    -0.76686 
 C                     4.79902  -1.88543   0.52116 
 H                     5.83643  -2.12236   0.81072 
 H                     4.62286  -2.32101  -0.46822 
 C                     5.11153   0.66094   2.00679 
 H                     4.2343    0.53105   2.65268 
 H                     5.19505   1.74492   1.84637 
 C                     5.97489  -0.07337  -2.18865 
 H                     6.07567  -1.16462  -2.21482 
 H                     5.02442   0.18504  -2.67006 
 H                     6.78722   0.34797  -2.79115 
 C                     6.37911   0.10522   2.6625 
 H                     6.55307   0.63844   3.60659 
 H                     6.28022  -0.95514   2.90102 
 H                     7.26381   0.24614   2.04239 
 C                     3.80435  -2.47149   1.53571 
 H                     2.7698   -2.24192   1.25546 
 H                     3.90817  -3.5624    1.56236 
 H                     3.96583  -2.08589   2.54755 
 S                     1.99465  -0.09469  -2.4852 
 N                    -6.68538  -3.0037    0.21232 
 C                    -5.29947  -2.71084   0.59327 
 C                    -5.10433  -1.2158    0.89214 
 O                    -5.60508  -0.38108   0.13916 
 C                    -4.39563  -3.136    -0.58473 
 O                    -3.01262  -2.86509  -0.374 
 N                    -4.45838  -0.80851   2.0358 
 C                    -3.66358  -1.59989   2.95668 
 C                    -2.23613  -1.94974   2.4709 
 O                    -1.97104  -3.12729   2.17233 
 N                    -1.32216  -0.9571    2.39201 
 C                    -1.50809   0.46028   2.63756 
 C                    -2.16007   1.25308   1.48634 
 O                    -2.98645   2.12438   1.76667 
 C                    -0.17895   1.14657   3.10137 
 S                     1.51135   0.52214   2.50907 
 N                    -1.75953   0.97599   0.22597 
 C                    -1.89753   1.96546  -0.84784 
 C                    -0.53738   2.45635  -1.42776 
 C                    -2.73573   1.34877  -1.99087 
 O                    -2.21246   0.56157  -2.78747 
 N                    -4.03788   1.70507  -2.08854 
 C                    -4.84018   2.43354  -1.11754 
 C                    -6.29891   2.15572  -1.41328 
 O                    -6.71375   1.52336  -2.36986 
 O                    -7.10488   2.72987  -0.49971 
 H                    -4.5824   -4.20044  -0.78752 
 H                    -4.68655  -2.5654   -1.47173 
 H                    -2.7272   -3.25449   0.47324 
 H                    -5.04141  -3.32962   1.4546 
 H                    -6.98048  -2.25706  -0.42008 
 H                    -7.28143  -2.93181   1.0274 
 H                    -4.14664  -2.562     3.16073 
 H                    -3.62182  -1.05746   3.90881 
 H                    -4.37612   0.20168   2.09947 
 H                    -0.12473   0.96223   4.2099 
 H                    -0.27957   2.23858   2.93731 
 H                    -2.2145    0.59771   3.46834 
 H                    -0.38294  -1.22521   2.09646 
 H                    -0.70043   3.40788  -1.96144 
 H                    -0.14271   1.73973  -2.15612 
 H                    -2.42288   2.81019  -0.39496 
 H                    -1.07788   0.22572   0.07117 
 H                    -4.69177   3.52231  -1.18636 
 H                    -4.62484   2.13035  -0.09086 
 H                    -4.57575   1.21036  -2.7962 
 H                    -8.01811   2.50864  -0.75257 
 Se                    0.78108   2.64825   0.02612 
 C                     1.7337   -1.7737   -2.13784 
 C                     2.76374  -2.71813  -2.39751 
 C                     0.49274  -2.25661  -1.57805 
 C                     2.64158  -4.05352  -2.07294 
 H                     3.67057  -2.34814  -2.87675 
 C                     0.40252  -3.62735  -1.21514 
 C                     1.44995  -4.49695  -1.45138 
 H                     3.43997  -4.7541   -2.28809 
 H                    -0.51953  -3.98535  -0.77502 
 H                     1.34418  -5.54412  -1.17936 
 N                    -0.57434  -1.43432  -1.36326 
 H                    -0.7108   -0.64435  -1.99631 
 H                    -1.45679  -1.89942  -1.13479 
 

 GradGradGradGradGradGradGradGradGradGradGradGradGradGradGradGradGradGrad
 Berny optimization.
 Initialization pass.
                           ----------------------------
                           !    Initial Parameters    !
                           ! (Angstroms and Degrees)  !
 --------------------------                            --------------------------
 ! Name  Definition              Value          Derivative Info.                !
 --------------------------------------------------------------------------------
 ! R1    R(1,2)                  2.4073         estimate D2E/DX2                !
 ! R2    R(1,24)                 2.5788         estimate D2E/DX2                !
 ! R3    R(1,72)                 2.4681         estimate D2E/DX2                !
 ! R4    R(2,3)                  1.8474         estimate D2E/DX2                !
 ! R5    R(2,6)                  1.8476         estimate D2E/DX2                !
 ! R6    R(2,9)                  1.8654         estimate D2E/DX2                !
 ! R7    R(3,4)                  1.0975         estimate D2E/DX2                !
 ! R8    R(3,5)                  1.0971         estimate D2E/DX2                !
 ! R9    R(3,12)                 1.5325         estimate D2E/DX2                !
 ! R10   R(6,7)                  1.1028         estimate D2E/DX2                !
 ! R11   R(6,8)                  1.0953         estimate D2E/DX2                !
 ! R12   R(6,20)                 1.5369         estimate D2E/DX2                !
 ! R13   R(9,10)                 1.0971         estimate D2E/DX2                !
 ! R14   R(9,11)                 1.099          estimate D2E/DX2                !
 ! R15   R(9,16)                 1.5315         estimate D2E/DX2                !
 ! R16   R(12,13)                1.0962         estimate D2E/DX2                !
 ! R17   R(12,14)                1.0963         estimate D2E/DX2                !
 ! R18   R(12,15)                1.0956         estimate D2E/DX2                !
 ! R19   R(16,17)                1.0981         estimate D2E/DX2                !
 ! R20   R(16,18)                1.0913         estimate D2E/DX2                !
 ! R21   R(16,19)                1.0895         estimate D2E/DX2                !
 ! R22   R(20,21)                1.0961         estimate D2E/DX2                !
 ! R23   R(20,22)                1.0962         estimate D2E/DX2                !
 ! R24   R(20,23)                1.0948         estimate D2E/DX2                !
 ! R25   R(24,73)                1.7343         estimate D2E/DX2                !
 ! R26   R(25,26)                1.4668         estimate D2E/DX2                !
 ! R27   R(25,55)                1.022          estimate D2E/DX2                !
 ! R28   R(25,56)                1.0123         estimate D2E/DX2                !
 ! R29   R(26,27)                1.537          estimate D2E/DX2                !
 ! R30   R(26,29)                1.5445         estimate D2E/DX2                !
 ! R31   R(26,54)                1.0915         estimate D2E/DX2                !
 ! R32   R(27,28)                1.2306         estimate D2E/DX2                !
 ! R33   R(27,31)                1.3752         estimate D2E/DX2                !
 ! R34   R(29,30)                1.425          estimate D2E/DX2                !
 ! R35   R(29,51)                1.0996         estimate D2E/DX2                !
 ! R36   R(29,52)                1.0941         estimate D2E/DX2                !
 ! R37   R(30,53)                0.9752         estimate D2E/DX2                !
 ! R38   R(31,32)                1.4512         estimate D2E/DX2                !
 ! R39   R(31,59)                1.0155         estimate D2E/DX2                !
 ! R40   R(32,33)                1.5479         estimate D2E/DX2                !
 ! R41   R(32,57)                1.0957         estimate D2E/DX2                !
 ! R42   R(32,58)                1.0966         estimate D2E/DX2                !
 ! R43   R(33,34)                1.2434         estimate D2E/DX2                !
 ! R44   R(33,35)                1.3516         estimate D2E/DX2                !
 ! R45   R(35,36)                1.4505         estimate D2E/DX2                !
 ! R46   R(35,63)                1.0205         estimate D2E/DX2                !
 ! R47   R(36,37)                1.5424         estimate D2E/DX2                !
 ! R48   R(36,39)                1.5661         estimate D2E/DX2                !
 ! R49   R(36,62)                1.0991         estimate D2E/DX2                !
 ! R50   R(37,38)                1.2331         estimate D2E/DX2                !
 ! R51   R(37,41)                1.3512         estimate D2E/DX2                !
 ! R52   R(39,40)                1.8968         estimate D2E/DX2                !
 ! R53   R(39,60)                1.1251         estimate D2E/DX2                !
 ! R54   R(39,61)                1.1088         estimate D2E/DX2                !
 ! R55   R(41,42)                1.4667         estimate D2E/DX2                !
 ! R56   R(41,67)                1.0254         estimate D2E/DX2                !
 ! R57   R(42,43)                1.558          estimate D2E/DX2                !
 ! R58   R(42,44)                1.5458         estimate D2E/DX2                !
 ! R59   R(42,66)                1.093          estimate D2E/DX2                !
 ! R60   R(43,64)                1.1031         estimate D2E/DX2                !
 ! R61   R(43,65)                1.0954         estimate D2E/DX2                !
 ! R62   R(43,72)                1.972          estimate D2E/DX2                !
 ! R63   R(44,45)                1.2361         estimate D2E/DX2                !
 ! R64   R(44,46)                1.3535         estimate D2E/DX2                !
 ! R65   R(46,47)                1.4551         estimate D2E/DX2                !
 ! R66   R(46,70)                1.0173         estimate D2E/DX2                !
 ! R67   R(47,48)                1.5141         estimate D2E/DX2                !
 ! R68   R(47,68)                1.101          estimate D2E/DX2                !
 ! R69   R(47,69)                1.092          estimate D2E/DX2                !
 ! R70   R(48,49)                1.2194         estimate D2E/DX2                !
 ! R71   R(48,50)                1.3468         estimate D2E/DX2                !
 ! R72   R(50,71)                0.9731         estimate D2E/DX2                !
 ! R73   R(73,74)                1.4214         estimate D2E/DX2                !
 ! R74   R(73,75)                1.4445         estimate D2E/DX2                !
 ! R75   R(74,76)                1.3797         estimate D2E/DX2                !
 ! R76   R(74,77)                1.0904         estimate D2E/DX2                !
 ! R77   R(75,78)                1.4208         estimate D2E/DX2                !
 ! R78   R(75,83)                1.3642         estimate D2E/DX2                !
 ! R79   R(76,79)                1.4153         estimate D2E/DX2                !
 ! R80   R(76,80)                1.0838         estimate D2E/DX2                !
 ! R81   R(78,79)                1.3817         estimate D2E/DX2                !
 ! R82   R(78,81)                1.0826         estimate D2E/DX2                !
 ! R83   R(79,82)                1.0871         estimate D2E/DX2                !
 ! R84   R(83,84)                1.0215         estimate D2E/DX2                !
 ! R85   R(83,85)                1.0233         estimate D2E/DX2                !
 ! A1    A(2,1,24)             102.4464         estimate D2E/DX2                !
 ! A2    A(2,1,72)             152.9405         estimate D2E/DX2                !
 ! A3    A(24,1,72)            101.6086         estimate D2E/DX2                !
 ! A4    A(1,2,3)              116.0881         estimate D2E/DX2                !
 ! A5    A(1,2,6)              118.4418         estimate D2E/DX2                !
 ! A6    A(1,2,9)              104.5104         estimate D2E/DX2                !
 ! A7    A(3,2,6)              106.3471         estimate D2E/DX2                !
 ! A8    A(3,2,9)              104.065          estimate D2E/DX2                !
 ! A9    A(6,2,9)              105.9637         estimate D2E/DX2                !
 ! A10   A(2,3,4)              108.0363         estimate D2E/DX2                !
 ! A11   A(2,3,5)              105.9233         estimate D2E/DX2                !
 ! A12   A(2,3,12)             114.632          estimate D2E/DX2                !
 ! A13   A(4,3,5)              106.8649         estimate D2E/DX2                !
 ! A14   A(4,3,12)             110.913          estimate D2E/DX2                !
 ! A15   A(5,3,12)             110.078          estimate D2E/DX2                !
 ! A16   A(2,6,7)              107.8975         estimate D2E/DX2                !
 ! A17   A(2,6,8)              107.179          estimate D2E/DX2                !
 ! A18   A(2,6,20)             113.2896         estimate D2E/DX2                !
 ! A19   A(7,6,8)              107.6398         estimate D2E/DX2                !
 ! A20   A(7,6,20)             110.7047         estimate D2E/DX2                !
 ! A21   A(8,6,20)             109.9111         estimate D2E/DX2                !
 ! A22   A(2,9,10)             106.7715         estimate D2E/DX2                !
 ! A23   A(2,9,11)             105.3475         estimate D2E/DX2                !
 ! A24   A(2,9,16)             116.2295         estimate D2E/DX2                !
 ! A25   A(10,9,11)            105.2773         estimate D2E/DX2                !
 ! A26   A(10,9,16)            111.5172         estimate D2E/DX2                !
 ! A27   A(11,9,16)            110.9474         estimate D2E/DX2                !
 ! A28   A(3,12,13)            111.6234         estimate D2E/DX2                !
 ! A29   A(3,12,14)            111.8997         estimate D2E/DX2                !
 ! A30   A(3,12,15)            109.8103         estimate D2E/DX2                !
 ! A31   A(13,12,14)           107.6897         estimate D2E/DX2                !
 ! A32   A(13,12,15)           107.55           estimate D2E/DX2                !
 ! A33   A(14,12,15)           108.0999         estimate D2E/DX2                !
 ! A34   A(9,16,17)            108.8446         estimate D2E/DX2                !
 ! A35   A(9,16,18)            111.7858         estimate D2E/DX2                !
 ! A36   A(9,16,19)            112.4237         estimate D2E/DX2                !
 ! A37   A(17,16,18)           107.3524         estimate D2E/DX2                !
 ! A38   A(17,16,19)           107.3297         estimate D2E/DX2                !
 ! A39   A(18,16,19)           108.8828         estimate D2E/DX2                !
 ! A40   A(6,20,21)            111.2339         estimate D2E/DX2                !
 ! A41   A(6,20,22)            109.5263         estimate D2E/DX2                !
 ! A42   A(6,20,23)            112.3542         estimate D2E/DX2                !
 ! A43   A(21,20,22)           107.7005         estimate D2E/DX2                !
 ! A44   A(21,20,23)           107.562          estimate D2E/DX2                !
 ! A45   A(22,20,23)           108.3061         estimate D2E/DX2                !
 ! A46   A(1,24,73)            102.7927         estimate D2E/DX2                !
 ! A47   A(26,25,55)           106.7174         estimate D2E/DX2                !
 ! A48   A(26,25,56)           109.4522         estimate D2E/DX2                !
 ! A49   A(55,25,56)           106.0409         estimate D2E/DX2                !
 ! A50   A(25,26,27)           111.3859         estimate D2E/DX2                !
 ! A51   A(25,26,29)           107.45           estimate D2E/DX2                !
 ! A52   A(25,26,54)           108.369          estimate D2E/DX2                !
 ! A53   A(27,26,29)           109.9847         estimate D2E/DX2                !
 ! A54   A(27,26,54)           111.5896         estimate D2E/DX2                !
 ! A55   A(29,26,54)           107.9063         estimate D2E/DX2                !
 ! A56   A(26,27,28)           119.2821         estimate D2E/DX2                !
 ! A57   A(26,27,31)           120.6255         estimate D2E/DX2                !
 ! A58   A(28,27,31)           119.9396         estimate D2E/DX2                !
 ! A59   A(26,29,30)           113.7568         estimate D2E/DX2                !
 ! A60   A(26,29,51)           107.9239         estimate D2E/DX2                !
 ! A61   A(26,29,52)           108.6134         estimate D2E/DX2                !
 ! A62   A(30,29,51)           112.0969         estimate D2E/DX2                !
 ! A63   A(30,29,52)           106.1899         estimate D2E/DX2                !
 ! A64   A(51,29,52)           108.0708         estimate D2E/DX2                !
 ! A65   A(29,30,53)           109.6728         estimate D2E/DX2                !
 ! A66   A(27,31,32)           128.5705         estimate D2E/DX2                !
 ! A67   A(27,31,59)           112.6318         estimate D2E/DX2                !
 ! A68   A(32,31,59)           117.2779         estimate D2E/DX2                !
 ! A69   A(31,32,33)           115.4151         estimate D2E/DX2                !
 ! A70   A(31,32,57)           110.8266         estimate D2E/DX2                !
 ! A71   A(31,32,58)           107.582          estimate D2E/DX2                !
 ! A72   A(33,32,57)           105.4586         estimate D2E/DX2                !
 ! A73   A(33,32,58)           110.4369         estimate D2E/DX2                !
 ! A74   A(57,32,58)           106.823          estimate D2E/DX2                !
 ! A75   A(32,33,34)           119.0788         estimate D2E/DX2                !
 ! A76   A(32,33,35)           118.4187         estimate D2E/DX2                !
 ! A77   A(34,33,35)           122.5022         estimate D2E/DX2                !
 ! A78   A(33,35,36)           128.3962         estimate D2E/DX2                !
 ! A79   A(33,35,63)           116.5076         estimate D2E/DX2                !
 ! A80   A(36,35,63)           115.0711         estimate D2E/DX2                !
 ! A81   A(35,36,37)           115.4745         estimate D2E/DX2                !
 ! A82   A(35,36,39)           111.6889         estimate D2E/DX2                !
 ! A83   A(35,36,62)           109.4222         estimate D2E/DX2                !
 ! A84   A(37,36,39)           110.7663         estimate D2E/DX2                !
 ! A85   A(37,36,62)           103.1918         estimate D2E/DX2                !
 ! A86   A(39,36,62)           105.4747         estimate D2E/DX2                !
 ! A87   A(36,37,38)           118.4754         estimate D2E/DX2                !
 ! A88   A(36,37,41)           117.7428         estimate D2E/DX2                !
 ! A89   A(38,37,41)           123.7519         estimate D2E/DX2                !
 ! A90   A(36,39,40)           121.3024         estimate D2E/DX2                !
 ! A91   A(36,39,60)           105.1239         estimate D2E/DX2                !
 ! A92   A(36,39,61)           108.1029         estimate D2E/DX2                !
 ! A93   A(40,39,60)           102.1686         estimate D2E/DX2                !
 ! A94   A(40,39,61)           111.0305         estimate D2E/DX2                !
 ! A95   A(60,39,61)           108.1509         estimate D2E/DX2                !
 ! A96   A(37,41,42)           121.1094         estimate D2E/DX2                !
 ! A97   A(37,41,67)           119.2031         estimate D2E/DX2                !
 ! A98   A(42,41,67)           116.4637         estimate D2E/DX2                !
 ! A99   A(41,42,43)           113.7619         estimate D2E/DX2                !
 ! A100  A(41,42,44)           108.8597         estimate D2E/DX2                !
 ! A101  A(41,42,66)           105.2638         estimate D2E/DX2                !
 ! A102  A(43,42,44)           108.8963         estimate D2E/DX2                !
 ! A103  A(43,42,66)           109.2893         estimate D2E/DX2                !
 ! A104  A(44,42,66)           110.7377         estimate D2E/DX2                !
 ! A105  A(42,43,64)           108.8341         estimate D2E/DX2                !
 ! A106  A(42,43,65)           110.8507         estimate D2E/DX2                !
 ! A107  A(42,43,72)           109.8721         estimate D2E/DX2                !
 ! A108  A(64,43,65)           107.2112         estimate D2E/DX2                !
 ! A109  A(64,43,72)           111.8122         estimate D2E/DX2                !
 ! A110  A(65,43,72)           108.2405         estimate D2E/DX2                !
 ! A111  A(42,44,45)           120.0689         estimate D2E/DX2                !
 ! A112  A(42,44,46)           118.0343         estimate D2E/DX2                !
 ! A113  A(45,44,46)           121.8953         estimate D2E/DX2                !
 ! A114  A(44,46,47)           127.8856         estimate D2E/DX2                !
 ! A115  A(44,46,70)           115.5214         estimate D2E/DX2                !
 ! A116  A(47,46,70)           114.5919         estimate D2E/DX2                !
 ! A117  A(46,47,48)           107.9998         estimate D2E/DX2                !
 ! A118  A(46,47,68)           112.2748         estimate D2E/DX2                !
 ! A119  A(46,47,69)           112.3145         estimate D2E/DX2                !
 ! A120  A(48,47,68)           107.4047         estimate D2E/DX2                !
 ! A121  A(48,47,69)           108.8254         estimate D2E/DX2                !
 ! A122  A(68,47,69)           107.8641         estimate D2E/DX2                !
 ! A123  A(47,48,49)           125.1783         estimate D2E/DX2                !
 ! A124  A(47,48,50)           111.4587         estimate D2E/DX2                !
 ! A125  A(49,48,50)           123.3395         estimate D2E/DX2                !
 ! A126  A(48,50,71)           106.7642         estimate D2E/DX2                !
 ! A127  A(1,72,43)            110.0773         estimate D2E/DX2                !
 ! A128  A(24,73,74)           119.8431         estimate D2E/DX2                !
 ! A129  A(24,73,75)           122.0412         estimate D2E/DX2                !
 ! A130  A(74,73,75)           118.1146         estimate D2E/DX2                !
 ! A131  A(73,74,76)           122.4093         estimate D2E/DX2                !
 ! A132  A(73,74,77)           117.2271         estimate D2E/DX2                !
 ! A133  A(76,74,77)           120.3626         estimate D2E/DX2                !
 ! A134  A(73,75,78)           118.4283         estimate D2E/DX2                !
 ! A135  A(73,75,83)           122.1076         estimate D2E/DX2                !
 ! A136  A(78,75,83)           119.4483         estimate D2E/DX2                !
 ! A137  A(74,76,79)           118.759          estimate D2E/DX2                !
 ! A138  A(74,76,80)           120.9137         estimate D2E/DX2                !
 ! A139  A(79,76,80)           120.3273         estimate D2E/DX2                !
 ! A140  A(75,78,79)           121.0218         estimate D2E/DX2                !
 ! A141  A(75,78,81)           118.4859         estimate D2E/DX2                !
 ! A142  A(79,78,81)           120.4663         estimate D2E/DX2                !
 ! A143  A(76,79,78)           121.077          estimate D2E/DX2                !
 ! A144  A(76,79,82)           119.5795         estimate D2E/DX2                !
 ! A145  A(78,79,82)           119.322          estimate D2E/DX2                !
 ! A146  A(75,83,84)           118.2341         estimate D2E/DX2                !
 ! A147  A(75,83,85)           115.8309         estimate D2E/DX2                !
 ! A148  A(84,83,85)           112.0028         estimate D2E/DX2                !
 ! D1    D(24,1,2,3)            64.8486         estimate D2E/DX2                !
 ! D2    D(24,1,2,6)           -63.585          estimate D2E/DX2                !
 ! D3    D(24,1,2,9)           178.8168         estimate D2E/DX2                !
 ! D4    D(72,1,2,3)           -87.4088         estimate D2E/DX2                !
 ! D5    D(72,1,2,6)           144.1576         estimate D2E/DX2                !
 ! D6    D(72,1,2,9)            26.5595         estimate D2E/DX2                !
 ! D7    D(2,1,24,73)           69.3433         estimate D2E/DX2                !
 ! D8    D(72,1,24,73)        -123.1418         estimate D2E/DX2                !
 ! D9    D(2,1,72,43)          162.9077         estimate D2E/DX2                !
 ! D10   D(24,1,72,43)          10.5566         estimate D2E/DX2                !
 ! D11   D(1,2,3,4)            166.3542         estimate D2E/DX2                !
 ! D12   D(1,2,3,5)             52.1381         estimate D2E/DX2                !
 ! D13   D(1,2,3,12)           -69.4324         estimate D2E/DX2                !
 ! D14   D(6,2,3,4)            -59.5189         estimate D2E/DX2                !
 ! D15   D(6,2,3,5)           -173.7351         estimate D2E/DX2                !
 ! D16   D(6,2,3,12)            64.6945         estimate D2E/DX2                !
 ! D17   D(9,2,3,4)             52.1324         estimate D2E/DX2                !
 ! D18   D(9,2,3,5)            -62.0838         estimate D2E/DX2                !
 ! D19   D(9,2,3,12)           176.3458         estimate D2E/DX2                !
 ! D20   D(1,2,6,7)           -176.4749         estimate D2E/DX2                !
 ! D21   D(1,2,6,8)             67.8575         estimate D2E/DX2                !
 ! D22   D(1,2,6,20)           -53.5527         estimate D2E/DX2                !
 ! D23   D(3,2,6,7)             50.6772         estimate D2E/DX2                !
 ! D24   D(3,2,6,8)            -64.9904         estimate D2E/DX2                !
 ! D25   D(3,2,6,20)           173.5993         estimate D2E/DX2                !
 ! D26   D(9,2,6,7)            -59.6466         estimate D2E/DX2                !
 ! D27   D(9,2,6,8)           -175.3142         estimate D2E/DX2                !
 ! D28   D(9,2,6,20)            63.2756         estimate D2E/DX2                !
 ! D29   D(1,2,9,10)            48.13           estimate D2E/DX2                !
 ! D30   D(1,2,9,11)           -63.4678         estimate D2E/DX2                !
 ! D31   D(1,2,9,16)           173.2671         estimate D2E/DX2                !
 ! D32   D(3,2,9,10)           170.3466         estimate D2E/DX2                !
 ! D33   D(3,2,9,11)            58.7488         estimate D2E/DX2                !
 ! D34   D(3,2,9,16)           -64.5163         estimate D2E/DX2                !
 ! D35   D(6,2,9,10)           -77.7242         estimate D2E/DX2                !
 ! D36   D(6,2,9,11)           170.678          estimate D2E/DX2                !
 ! D37   D(6,2,9,16)            47.4129         estimate D2E/DX2                !
 ! D38   D(2,3,12,13)          -65.5617         estimate D2E/DX2                !
 ! D39   D(2,3,12,14)           55.2112         estimate D2E/DX2                !
 ! D40   D(2,3,12,15)          175.2579         estimate D2E/DX2                !
 ! D41   D(4,3,12,13)           57.1112         estimate D2E/DX2                !
 ! D42   D(4,3,12,14)          177.8841         estimate D2E/DX2                !
 ! D43   D(4,3,12,15)          -62.0692         estimate D2E/DX2                !
 ! D44   D(5,3,12,13)          175.1677         estimate D2E/DX2                !
 ! D45   D(5,3,12,14)          -64.0594         estimate D2E/DX2                !
 ! D46   D(5,3,12,15)           55.9873         estimate D2E/DX2                !
 ! D47   D(2,6,20,21)           58.7067         estimate D2E/DX2                !
 ! D48   D(2,6,20,22)          177.6462         estimate D2E/DX2                !
 ! D49   D(2,6,20,23)          -61.9443         estimate D2E/DX2                !
 ! D50   D(7,6,20,21)         -179.9362         estimate D2E/DX2                !
 ! D51   D(7,6,20,22)          -60.9967         estimate D2E/DX2                !
 ! D52   D(7,6,20,23)           59.4129         estimate D2E/DX2                !
 ! D53   D(8,6,20,21)          -61.1558         estimate D2E/DX2                !
 ! D54   D(8,6,20,22)           57.7837         estimate D2E/DX2                !
 ! D55   D(8,6,20,23)          178.1932         estimate D2E/DX2                !
 ! D56   D(2,9,16,17)          177.3323         estimate D2E/DX2                !
 ! D57   D(2,9,16,18)          -64.2569         estimate D2E/DX2                !
 ! D58   D(2,9,16,19)           58.5605         estimate D2E/DX2                !
 ! D59   D(10,9,16,17)         -59.9823         estimate D2E/DX2                !
 ! D60   D(10,9,16,18)          58.4285         estimate D2E/DX2                !
 ! D61   D(10,9,16,19)        -178.7541         estimate D2E/DX2                !
 ! D62   D(11,9,16,17)          57.0311         estimate D2E/DX2                !
 ! D63   D(11,9,16,18)         175.4419         estimate D2E/DX2                !
 ! D64   D(11,9,16,19)         -61.7407         estimate D2E/DX2                !
 ! D65   D(1,24,73,74)        -101.2608         estimate D2E/DX2                !
 ! D66   D(1,24,73,75)          78.3482         estimate D2E/DX2                !
 ! D67   D(55,25,26,27)         42.4035         estimate D2E/DX2                !
 ! D68   D(55,25,26,29)        -78.1172         estimate D2E/DX2                !
 ! D69   D(55,25,26,54)        165.5251         estimate D2E/DX2                !
 ! D70   D(56,25,26,27)        -71.9308         estimate D2E/DX2                !
 ! D71   D(56,25,26,29)        167.5486         estimate D2E/DX2                !
 ! D72   D(56,25,26,54)         51.1909         estimate D2E/DX2                !
 ! D73   D(25,26,27,28)        -43.7911         estimate D2E/DX2                !
 ! D74   D(25,26,27,31)        131.7134         estimate D2E/DX2                !
 ! D75   D(29,26,27,28)         75.2279         estimate D2E/DX2                !
 ! D76   D(29,26,27,31)       -109.2676         estimate D2E/DX2                !
 ! D77   D(54,26,27,28)       -165.0525         estimate D2E/DX2                !
 ! D78   D(54,26,27,31)         10.452          estimate D2E/DX2                !
 ! D79   D(25,26,29,30)        177.9164         estimate D2E/DX2                !
 ! D80   D(25,26,29,51)        -57.0307         estimate D2E/DX2                !
 ! D81   D(25,26,29,52)         59.9022         estimate D2E/DX2                !
 ! D82   D(27,26,29,30)         56.5139         estimate D2E/DX2                !
 ! D83   D(27,26,29,51)       -178.4332         estimate D2E/DX2                !
 ! D84   D(27,26,29,52)        -61.5003         estimate D2E/DX2                !
 ! D85   D(54,26,29,30)        -65.4219         estimate D2E/DX2                !
 ! D86   D(54,26,29,51)         59.631          estimate D2E/DX2                !
 ! D87   D(54,26,29,52)        176.5639         estimate D2E/DX2                !
 ! D88   D(26,27,31,32)         13.1621         estimate D2E/DX2                !
 ! D89   D(26,27,31,59)        178.5278         estimate D2E/DX2                !
 ! D90   D(28,27,31,32)       -171.3628         estimate D2E/DX2                !
 ! D91   D(28,27,31,59)         -5.9972         estimate D2E/DX2                !
 ! D92   D(26,29,30,53)         53.1318         estimate D2E/DX2                !
 ! D93   D(51,29,30,53)        -69.6607         estimate D2E/DX2                !
 ! D94   D(52,29,30,53)        172.5331         estimate D2E/DX2                !
 ! D95   D(27,31,32,33)         76.7089         estimate D2E/DX2                !
 ! D96   D(27,31,32,57)        -43.0583         estimate D2E/DX2                !
 ! D97   D(27,31,32,58)       -159.5047         estimate D2E/DX2                !
 ! D98   D(59,31,32,33)        -88.0802         estimate D2E/DX2                !
 ! D99   D(59,31,32,57)        152.1525         estimate D2E/DX2                !
 ! D100  D(59,31,32,58)         35.7062         estimate D2E/DX2                !
 ! D101  D(31,32,33,34)       -110.1757         estimate D2E/DX2                !
 ! D102  D(31,32,33,35)         70.0205         estimate D2E/DX2                !
 ! D103  D(57,32,33,34)         12.4953         estimate D2E/DX2                !
 ! D104  D(57,32,33,35)       -167.3085         estimate D2E/DX2                !
 ! D105  D(58,32,33,34)        127.551          estimate D2E/DX2                !
 ! D106  D(58,32,33,35)        -52.2528         estimate D2E/DX2                !
 ! D107  D(32,33,35,36)         -3.7835         estimate D2E/DX2                !
 ! D108  D(32,33,35,63)        178.1449         estimate D2E/DX2                !
 ! D109  D(34,33,35,36)        176.4197         estimate D2E/DX2                !
 ! D110  D(34,33,35,63)         -1.6518         estimate D2E/DX2                !
 ! D111  D(33,35,36,37)        -79.2537         estimate D2E/DX2                !
 ! D112  D(33,35,36,39)        153.0011         estimate D2E/DX2                !
 ! D113  D(33,35,36,62)         36.5969         estimate D2E/DX2                !
 ! D114  D(63,35,36,37)         98.8411         estimate D2E/DX2                !
 ! D115  D(63,35,36,39)        -28.9041         estimate D2E/DX2                !
 ! D116  D(63,35,36,62)       -145.3083         estimate D2E/DX2                !
 ! D117  D(35,36,37,38)        140.2102         estimate D2E/DX2                !
 ! D118  D(35,36,37,41)        -41.7042         estimate D2E/DX2                !
 ! D119  D(39,36,37,38)        -91.5855         estimate D2E/DX2                !
 ! D120  D(39,36,37,41)         86.5            estimate D2E/DX2                !
 ! D121  D(62,36,37,38)         20.87           estimate D2E/DX2                !
 ! D122  D(62,36,37,41)       -161.0445         estimate D2E/DX2                !
 ! D123  D(35,36,39,40)         30.9651         estimate D2E/DX2                !
 ! D124  D(35,36,39,60)        -83.8626         estimate D2E/DX2                !
 ! D125  D(35,36,39,61)        160.8058         estimate D2E/DX2                !
 ! D126  D(37,36,39,40)        -99.2646         estimate D2E/DX2                !
 ! D127  D(37,36,39,60)        145.9077         estimate D2E/DX2                !
 ! D128  D(37,36,39,61)         30.5761         estimate D2E/DX2                !
 ! D129  D(62,36,39,40)        149.744          estimate D2E/DX2                !
 ! D130  D(62,36,39,60)         34.9163         estimate D2E/DX2                !
 ! D131  D(62,36,39,61)        -80.4152         estimate D2E/DX2                !
 ! D132  D(36,37,41,42)       -156.0445         estimate D2E/DX2                !
 ! D133  D(36,37,41,67)          2.9559         estimate D2E/DX2                !
 ! D134  D(38,37,41,42)         21.9315         estimate D2E/DX2                !
 ! D135  D(38,37,41,67)       -179.0681         estimate D2E/DX2                !
 ! D136  D(37,41,42,43)        115.1645         estimate D2E/DX2                !
 ! D137  D(37,41,42,44)       -123.2134         estimate D2E/DX2                !
 ! D138  D(37,41,42,66)         -4.4575         estimate D2E/DX2                !
 ! D139  D(67,41,42,43)        -44.3833         estimate D2E/DX2                !
 ! D140  D(67,41,42,44)         77.2389         estimate D2E/DX2                !
 ! D141  D(67,41,42,66)       -164.0053         estimate D2E/DX2                !
 ! D142  D(41,42,43,64)       -161.1934         estimate D2E/DX2                !
 ! D143  D(41,42,43,65)         81.1315         estimate D2E/DX2                !
 ! D144  D(41,42,43,72)        -38.4601         estimate D2E/DX2                !
 ! D145  D(44,42,43,64)         77.2047         estimate D2E/DX2                !
 ! D146  D(44,42,43,65)        -40.4704         estimate D2E/DX2                !
 ! D147  D(44,42,43,72)       -160.062          estimate D2E/DX2                !
 ! D148  D(66,42,43,64)        -43.8811         estimate D2E/DX2                !
 ! D149  D(66,42,43,65)       -161.5562         estimate D2E/DX2                !
 ! D150  D(66,42,43,72)         78.8522         estimate D2E/DX2                !
 ! D151  D(41,42,44,45)        -78.762          estimate D2E/DX2                !
 ! D152  D(41,42,44,46)        101.674          estimate D2E/DX2                !
 ! D153  D(43,42,44,45)         45.7778         estimate D2E/DX2                !
 ! D154  D(43,42,44,46)       -133.7862         estimate D2E/DX2                !
 ! D155  D(66,42,44,45)        165.9729         estimate D2E/DX2                !
 ! D156  D(66,42,44,46)        -13.5911         estimate D2E/DX2                !
 ! D157  D(42,43,72,1)         109.7904         estimate D2E/DX2                !
 ! D158  D(64,43,72,1)        -129.2524         estimate D2E/DX2                !
 ! D159  D(65,43,72,1)         -11.382          estimate D2E/DX2                !
 ! D160  D(42,44,46,47)        -11.4276         estimate D2E/DX2                !
 ! D161  D(42,44,46,70)       -174.3241         estimate D2E/DX2                !
 ! D162  D(45,44,46,47)        169.0169         estimate D2E/DX2                !
 ! D163  D(45,44,46,70)          6.1203         estimate D2E/DX2                !
 ! D164  D(44,46,47,48)       -159.4549         estimate D2E/DX2                !
 ! D165  D(44,46,47,68)         82.3182         estimate D2E/DX2                !
 ! D166  D(44,46,47,69)        -39.4477         estimate D2E/DX2                !
 ! D167  D(70,46,47,48)          3.5748         estimate D2E/DX2                !
 ! D168  D(70,46,47,68)       -114.6521         estimate D2E/DX2                !
 ! D169  D(70,46,47,69)        123.5821         estimate D2E/DX2                !
 ! D170  D(46,47,48,49)         -5.6756         estimate D2E/DX2                !
 ! D171  D(46,47,48,50)        176.0446         estimate D2E/DX2                !
 ! D172  D(68,47,48,49)        115.6251         estimate D2E/DX2                !
 ! D173  D(68,47,48,50)        -62.6547         estimate D2E/DX2                !
 ! D174  D(69,47,48,49)       -127.8544         estimate D2E/DX2                !
 ! D175  D(69,47,48,50)         53.8658         estimate D2E/DX2                !
 ! D176  D(47,48,50,71)       -179.9213         estimate D2E/DX2                !
 ! D177  D(49,48,50,71)          1.7617         estimate D2E/DX2                !
 ! D178  D(24,73,74,76)        176.3015         estimate D2E/DX2                !
 ! D179  D(24,73,74,77)         -4.0593         estimate D2E/DX2                !
 ! D180  D(75,73,74,76)         -3.3228         estimate D2E/DX2                !
 ! D181  D(75,73,74,77)        176.3164         estimate D2E/DX2                !
 ! D182  D(24,73,75,78)       -174.5915         estimate D2E/DX2                !
 ! D183  D(24,73,75,83)          3.9523         estimate D2E/DX2                !
 ! D184  D(74,73,75,78)          5.024          estimate D2E/DX2                !
 ! D185  D(74,73,75,83)       -176.4322         estimate D2E/DX2                !
 ! D186  D(73,74,76,79)         -0.3905         estimate D2E/DX2                !
 ! D187  D(73,74,76,80)        179.5841         estimate D2E/DX2                !
 ! D188  D(77,74,76,79)        179.9813         estimate D2E/DX2                !
 ! D189  D(77,74,76,80)         -0.0441         estimate D2E/DX2                !
 ! D190  D(73,75,78,79)         -3.1948         estimate D2E/DX2                !
 ! D191  D(73,75,78,81)        178.6518         estimate D2E/DX2                !
 ! D192  D(83,75,78,79)        178.2217         estimate D2E/DX2                !
 ! D193  D(83,75,78,81)          0.0683         estimate D2E/DX2                !
 ! D194  D(73,75,83,84)         31.6334         estimate D2E/DX2                !
 ! D195  D(73,75,83,85)        168.7203         estimate D2E/DX2                !
 ! D196  D(78,75,83,84)       -149.8373         estimate D2E/DX2                !
 ! D197  D(78,75,83,85)        -12.7503         estimate D2E/DX2                !
 ! D198  D(74,76,79,78)          2.4107         estimate D2E/DX2                !
 ! D199  D(74,76,79,82)       -179.2901         estimate D2E/DX2                !
 ! D200  D(80,76,79,78)       -177.564          estimate D2E/DX2                !
 ! D201  D(80,76,79,82)          0.7352         estimate D2E/DX2                !
 ! D202  D(75,78,79,76)         -0.5655         estimate D2E/DX2                !
 ! D203  D(75,78,79,82)       -178.869          estimate D2E/DX2                !
 ! D204  D(81,78,79,76)        177.5514         estimate D2E/DX2                !
 ! D205  D(81,78,79,82)         -0.7521         estimate D2E/DX2                !
 --------------------------------------------------------------------------------
 Trust Radius=3.00D-01 FncErr=1.00D-07 GrdErr=1.00D-06
 Number of steps in this run=    448 maximum allowed number of steps=    510.
 GradGradGradGradGradGradGradGradGradGradGradGradGradGradGradGradGradGrad

 Stoichiometry    C25H42AuN6O7PS2Se
 Framework group  C1[X(C25H42AuN6O7PS2Se)]
 Deg. of freedom   249
 Full point group                 C1      NOp   1
 Largest Abelian subgroup         C1      NOp   1
 Largest concise Abelian subgroup C1      NOp   1
                         Standard orientation:                         
 ---------------------------------------------------------------------
 Center     Atomic      Atomic             Coordinates (Angstroms)
 Number     Number       Type             X           Y           Z
 ---------------------------------------------------------------------
      1         79           0       -2.501495   -0.914575   -0.131861
      2         15           0       -4.663846    0.045709    0.312036
      3          6           0       -6.046026   -0.529825   -0.770215
      4          1           0       -6.991301   -0.212647   -0.311675
      5          1           0       -6.024253   -1.625914   -0.728913
      6          6           0       -4.807435    1.885348    0.404766
      7          1           0       -5.847719    2.130832    0.676322
      8          1           0       -4.626589    2.275139   -0.602701
      9          6           0       -5.119024   -0.590419    2.005483
     10          1           0       -4.246633   -0.426617    2.650206
     11          1           0       -5.196921   -1.681059    1.895251
     12          6           0       -5.957772   -0.056302   -2.225071
     13          1           0       -6.062966    1.032079   -2.302731
     14          1           0       -5.003059   -0.332574   -2.687817
     15          1           0       -6.764322   -0.508916   -2.812451
     16          6           0       -6.393231   -0.010461    2.626449
     17          1           0       -6.571175   -0.499897    3.593240
     18          1           0       -6.300383    1.060290    2.815896
     19          1           0       -7.273224   -0.184113    2.007942
     20          6           0       -3.821958    2.522525    1.397231
     21          1           0       -2.784627    2.284808    1.134610
     22          1           0       -3.930543    3.613014    1.372316
     23          1           0       -3.988489    2.183764    2.424894
     24         16           0       -1.975779   -0.030874   -2.496834
     25          7           0        6.673944    3.039796    0.117565
     26          6           0        5.286795    2.758750    0.502890
     27          6           0        5.095985    1.278405    0.869893
     28          8           0        5.605193    0.411764    0.159867
     29          6           0        4.388965    3.124477   -0.699407
     30          8           0        3.005751    2.857448   -0.485124
     31          7           0        4.444222    0.921937    2.027143
     32          6           0        3.640031    1.751776    2.905018
     33          6           0        2.214363    2.072167    2.394333
     34          8           0        1.946297    3.233321    2.039496
     35          7           0        1.305119    1.072819    2.355972
     36          6           0        1.495380   -0.330731    2.668532
     37          6           0        2.158278   -1.173360    1.559720
     38          8           0        2.986448   -2.026916    1.885652
     39          6           0        0.166113   -1.000644    3.155327
     40         16           0       -1.522856   -0.412127    2.523756
     41          7           0        1.764895   -0.957109    0.285266
     42          6           0        1.914143   -1.994917   -0.740334
     43          6           0        0.559920   -2.518422   -1.305425
     44          6           0        2.757265   -1.428378   -1.905496
     45          8           0        2.235949   -0.681530   -2.741267
     46          7           0        4.061514   -1.782971   -1.978120
     47          6           0        4.860452   -2.461780   -0.969101
     48          6           0        6.319915   -2.191459   -1.268134
     49          8           0        6.738400   -1.602495   -2.250485
     50          8           0        7.122249   -2.718782   -0.323650
     51          1           0        4.572587    4.179143   -0.950409
     52          1           0        4.688132    2.514481   -1.556957
     53          1           0        2.713109    3.284612    0.341198
     54          1           0        5.020456    3.415828    1.332760
     55          1           0        6.976345    2.265834   -0.477434
     56          1           0        7.264903    3.008648    0.938905
     57          1           0        4.117685    2.724519    3.067077
     58          1           0        3.594280    1.254118    3.881123
     59          1           0        4.365791   -0.084546    2.137313
     60          1           0        0.103800   -0.765099    4.253686
     61          1           0        0.272409   -2.098649    3.043003
     62          1           0        2.196867   -0.426111    3.509310
     63          1           0        0.366751    1.322622    2.042247
     64          1           0        0.730491   -3.493043   -1.793106
     65          1           0        0.167061   -1.838312   -2.068910
     66          1           0        2.440039   -2.815243   -0.245215
     67          1           0        1.081140   -0.217951    0.091298
     68          1           0        4.717075   -3.553227   -0.988028
     69          1           0        4.637071   -2.112052    0.040932
     70          1           0        4.601957   -1.319351   -2.704617
     71          1           0        8.036194   -2.505451   -0.580713
     72         34           0       -0.767278   -2.648315    0.147356
     73          6           0       -1.724195    1.663662   -2.226469
     74          6           0       -2.756465    2.590307   -2.536474
     75          6           0       -0.488999    2.177717   -1.681881
     76          6           0       -2.642067    3.939913   -2.273746
     77          1           0       -3.658550    2.194295   -3.003735
     78          6           0       -0.406940    3.564278   -1.382711
     79          6           0       -1.456439    4.417187   -1.665934
     80          1           0       -3.441963    4.626091   -2.526431
     81          1           0        0.510668    3.946551   -0.953879
     82          1           0       -1.356875    5.476364   -1.442371
     83          7           0        0.580091    1.371151   -1.422165
     84          1           0        0.724043    0.553168   -2.016809
     85          1           0        1.459052    1.850374   -1.209993
 ---------------------------------------------------------------------
 Rotational constants (GHZ):      0.0933294      0.0379540      0.0351847
 General basis read from cards:  (5D, 7F)
 ======================================================================================================
                                       Pseudopotential Parameters
 ======================================================================================================
  Center     Atomic      Valence      Angular      Power
  Number     Number     Electrons     Momentum     of R      Exponent        Coefficient   SO-Coeffient
 ======================================================================================================
    1         79           19
                                      G and up 
                                                     1      622.6287956      -60.00000000    0.00000000
                                                     2      136.2843607     -555.52923120    0.00000000
                                                     2       33.1549781     -168.00197850    0.00000000
                                                     2        9.9894895      -63.03998750    0.00000000
                                                     2        3.0481312       -4.25166810    0.00000000
                                      S - G
                                                     0      194.7374304        3.00000000    0.00000000
                                                     1      351.5327447       38.60208800    0.00000000
                                                     2      122.3270402      864.83707270    0.00000000
                                                     2       32.0914617      374.99355200    0.00000000
                                                     2        5.2451812      289.79101000    0.00000000
                                                     2        4.4916223     -152.45327730    0.00000000
                                      P - G
                                                     0      420.6158801        2.00000000    0.00000000
                                                     1      109.4417815       73.88856250    0.00000000
                                                     2       34.1714280      326.67298720    0.00000000
                                                     2        5.9879750      126.58145910    0.00000000
                                      D - G
                                                     0      219.2666158        3.00000000    0.00000000
                                                     1      122.7297786       55.67931490    0.00000000
                                                     2       63.1063369      449.19873350    0.00000000
                                                     2       18.3684520      215.02690910    0.00000000
                                                     2        4.4972844       64.08409950    0.00000000
                                      F - G
                                                     0      108.5506037        4.00000000    0.00000000
                                                     1       56.4795527       51.80653350    0.00000000
                                                     2       29.2069159      231.21831130    0.00000000
                                                     2        9.5440543      119.00473860    0.00000000
                                                     2        2.8965118       15.34241880    0.00000000
    2         15
                                   No pseudopotential on this center.
    3          6
                                   No pseudopotential on this center.
    4          1
                                   No pseudopotential on this center.
    5          1
                                   No pseudopotential on this center.
    6          6
                                   No pseudopotential on this center.
    7          1
                                   No pseudopotential on this center.
    8          1
                                   No pseudopotential on this center.
    9          6
                                   No pseudopotential on this center.
   10          1
                                   No pseudopotential on this center.
   11          1
                                   No pseudopotential on this center.
   12          6
                                   No pseudopotential on this center.
   13          1
                                   No pseudopotential on this center.
   14          1
                                   No pseudopotential on this center.
   15          1
                                   No pseudopotential on this center.
   16          6
                                   No pseudopotential on this center.
   17          1
                                   No pseudopotential on this center.
   18          1
                                   No pseudopotential on this center.
   19          1
                                   No pseudopotential on this center.
   20          6
                                   No pseudopotential on this center.
   21          1
                                   No pseudopotential on this center.
   22          1
                                   No pseudopotential on this center.
   23          1
                                   No pseudopotential on this center.
   24         16
                                   No pseudopotential on this center.
   25          7
                                   No pseudopotential on this center.
   26          6
                                   No pseudopotential on this center.
   27          6
                                   No pseudopotential on this center.
   28          8
                                   No pseudopotential on this center.
   29          6
                                   No pseudopotential on this center.
   30          8
                                   No pseudopotential on this center.
   31          7
                                   No pseudopotential on this center.
   32          6
                                   No pseudopotential on this center.
   33          6
                                   No pseudopotential on this center.
   34          8
                                   No pseudopotential on this center.
   35          7
                                   No pseudopotential on this center.
   36          6
                                   No pseudopotential on this center.
   37          6
                                   No pseudopotential on this center.
   38          8
                                   No pseudopotential on this center.
   39          6
                                   No pseudopotential on this center.
   40         16
                                   No pseudopotential on this center.
   41          7
                                   No pseudopotential on this center.
   42          6
                                   No pseudopotential on this center.
   43          6
                                   No pseudopotential on this center.
   44          6
                                   No pseudopotential on this center.
   45          8
                                   No pseudopotential on this center.
   46          7
                                   No pseudopotential on this center.
   47          6
                                   No pseudopotential on this center.
   48          6
                                   No pseudopotential on this center.
   49          8
                                   No pseudopotential on this center.
   50          8
                                   No pseudopotential on this center.
   51          1
                                   No pseudopotential on this center.
   52          1
                                   No pseudopotential on this center.
   53          1
                                   No pseudopotential on this center.
   54          1
                                   No pseudopotential on this center.
   55          1
                                   No pseudopotential on this center.
   56          1
                                   No pseudopotential on this center.
   57          1
                                   No pseudopotential on this center.
   58          1
                                   No pseudopotential on this center.
   59          1
                                   No pseudopotential on this center.
   60          1
                                   No pseudopotential on this center.
   61          1
                                   No pseudopotential on this center.
   62          1
                                   No pseudopotential on this center.
   63          1
                                   No pseudopotential on this center.
   64          1
                                   No pseudopotential on this center.
   65          1
                                   No pseudopotential on this center.
   66          1
                                   No pseudopotential on this center.
   67          1
                                   No pseudopotential on this center.
   68          1
                                   No pseudopotential on this center.
   69          1
                                   No pseudopotential on this center.
   70          1
                                   No pseudopotential on this center.
   71          1
                                   No pseudopotential on this center.
   72         34
                                   No pseudopotential on this center.
   73          6
                                   No pseudopotential on this center.
   74          6
                                   No pseudopotential on this center.
   75          6
                                   No pseudopotential on this center.
   76          6
                                   No pseudopotential on this center.
   77          1
                                   No pseudopotential on this center.
   78          6
                                   No pseudopotential on this center.
   79          6
                                   No pseudopotential on this center.
   80          1
                                   No pseudopotential on this center.
   81          1
                                   No pseudopotential on this center.
   82          1
                                   No pseudopotential on this center.
   83          7
                                   No pseudopotential on this center.
   84          1
                                   No pseudopotential on this center.
   85          1
                                   No pseudopotential on this center.
 ======================================================================================================
 There are   789 symmetry adapted cartesian basis functions of A   symmetry.
 There are   740 symmetry adapted basis functions of A   symmetry.
   740 basis functions,  1519 primitive gaussians,   789 cartesian basis functions
   195 alpha electrons      195 beta electrons
       nuclear repulsion energy      8064.2448016910 Hartrees.
 NAtoms=   85 NActive=   85 NUniq=   85 SFac= 1.00D+00 NAtFMM=   60 NAOKFM=T Big=T
 Integral buffers will be    131072 words long.
 Raffenetti 2 integral format.
 Two-electron integral symmetry is turned on.
 One-electron integrals computed using PRISM.
   1 Symmetry operations used in ECPInt.
 ECPInt:  NShTT=   38503 NPrTT=  233869 LenC2=   28792 LenP2D=   88669.
 LDataN:  DoStor=T MaxTD1= 7 Len=  274
 NBasis=   740 RedAO= T EigKep=  4.92D-04  NBF=   740
 NBsUse=   740 1.00D-06 EigRej= -1.00D+00 NBFU=   740
 Defaulting to unpruned grid for atomic number  79.
 ExpMin= 2.79D-02 ExpMax= 5.61D+05 ExpMxC= 5.42D+03 IAcc=3 IRadAn=         5 AccDes= 0.00D+00
 Harris functional with IExCor=  402 and IRadAn=       5 diagonalized for initial guess.
 HarFok:  IExCor=  402 AccDes= 0.00D+00 IRadAn=         5 IDoV= 1 UseB2=F ITyADJ=14
 ICtDFT=  3500011 ScaDFX=  1.000000  1.000000  1.000000  1.000000
 Defaulting to unpruned grid for atomic number  79.
 Defaulting to unpruned grid for atomic number  79.
 Defaulting to unpruned grid for atomic number  79.
 Defaulting to unpruned grid for atomic number  79.
 Defaulting to unpruned grid for atomic number  79.
 Defaulting to unpruned grid for atomic number  79.
 Defaulting to unpruned grid for atomic number  79.
 Defaulting to unpruned grid for atomic number  79.
 FoFCou: FMM=F IPFlag=           0 FMFlag=      100000 FMFlg1=        2001
         NFxFlg=           0 DoJE=T BraDBF=F KetDBF=T FulRan=T
         wScrn=  0.000000 ICntrl=     500 IOpCl=  0 I1Cent=   200000004 NGrid=           0
         NMat0=    1 NMatS0=      1 NMatT0=    0 NMatD0=    1 NMtDS0=    0 NMtDT0=    0
 Petite list used in FoFCou.
 Requested convergence on RMS density matrix=1.00D-08 within 128 cycles.
 Requested convergence on MAX density matrix=1.00D-06.
 Requested convergence on             energy=1.00D-06.
 No special actions if energy rises.
 Defaulting to unpruned grid for atomic number  79.
 Defaulting to unpruned grid for atomic number  79.
 Defaulting to unpruned grid for atomic number  79.
 Defaulting to unpruned grid for atomic number  79.
 Defaulting to unpruned grid for atomic number  79.
 Defaulting to unpruned grid for atomic number  79.
 Defaulting to unpruned grid for atomic number  79.
 Defaulting to unpruned grid for atomic number  79.
 EnCoef did     5 forward-backward iterations
 EnCoef did     2 forward-backward iterations
 SCF Done:  E(RB3LYP) =  -5505.22987265     A.U. after   19 cycles
            NFock= 19  Conv=0.96D-08     -V/T= 2.0182

 **********************************************************************

            Population analysis using the SCF density.

 **********************************************************************

 Orbital symmetries:
       Occupied  (A) (A) (A) (A) (A) (A) (A) (A) (A) (A) (A) (A)
                 (A) (A) (A) (A) (A) (A) (A) (A) (A) (A) (A) (A)
                 (A) (A) (A) (A) (A) (A) (A) (A) (A) (A) (A) (A)
                 (A) (A) (A) (A) (A) (A) (A) (A) (A) (A) (A) (A)
                 (A) (A) (A) (A) (A) (A) (A) (A) (A) (A) (A) (A)
                 (A) (A) (A) (A) (A) (A) (A) (A) (A) (A) (A) (A)
                 (A) (A) (A) (A) (A) (A) (A) (A) (A) (A) (A) (A)
                 (A) (A) (A) (A) (A) (A) (A) (A) (A) (A) (A) (A)
                 (A) (A) (A) (A) (A) (A) (A) (A) (A) (A) (A) (A)
                 (A) (A) (A) (A) (A) (A) (A) (A) (A) (A) (A) (A)
                 (A) (A) (A) (A) (A) (A) (A) (A) (A) (A) (A) (A)
                 (A) (A) (A) (A) (A) (A) (A) (A) (A) (A) (A) (A)
                 (A) (A) (A) (A) (A) (A) (A) (A) (A) (A) (A) (A)
                 (A) (A) (A) (A) (A) (A) (A) (A) (A) (A) (A) (A)
                 (A) (A) (A) (A) (A) (A) (A) (A) (A) (A) (A) (A)
                 (A) (A) (A) (A) (A) (A) (A) (A) (A) (A) (A) (A)
                 (A) (A) (A)
       Virtual   (A) (A) (A) (A) (A) (A) (A) (A) (A) (A) (A) (A)
                 (A) (A) (A) (A) (A) (A) (A) (A) (A) (A) (A) (A)
                 (A) (A) (A) (A) (A) (A) (A) (A) (A) (A) (A) (A)
                 (A) (A) (A) (A) (A) (A) (A) (A) (A) (A) (A) (A)
                 (A) (A) (A) (A) (A) (A) (A) (A) (A) (A) (A) (A)
                 (A) (A) (A) (A) (A) (A) (A) (A) (A) (A) (A) (A)
                 (A) (A) (A) (A) (A) (A) (A) (A) (A) (A) (A) (A)
                 (A) (A) (A) (A) (A) (A) (A) (A) (A) (A) (A) (A)
                 (A) (A) (A) (A) (A) (A) (A) (A) (A) (A) (A) (A)
                 (A) (A) (A) (A) (A) (A) (A) (A) (A) (A) (A) (A)
                 (A) (A) (A) (A) (A) (A) (A) (A) (A) (A) (A) (A)
                 (A) (A) (A) (A) (A) (A) (A) (A) (A) (A) (A) (A)
                 (A) (A) (A) (A) (A) (A) (A) (A) (A) (A) (A) (A)
                 (A) (A) (A) (A) (A) (A) (A) (A) (A) (A) (A) (A)
                 (A) (A) (A) (A) (A) (A) (A) (A) (A) (A) (A) (A)
                 (A) (A) (A) (A) (A) (A) (A) (A) (A) (A) (A) (A)
                 (A) (A) (A) (A) (A) (A) (A) (A) (A) (A) (A) (A)
                 (A) (A) (A) (A) (A) (A) (A) (A) (A) (A) (A) (A)
                 (A) (A) (A) (A) (A) (A) (A) (A) (A) (A) (A) (A)
                 (A) (A) (A) (A) (A) (A) (A) (A) (A) (A) (A) (A)
                 (A) (A) (A) (A) (A) (A) (A) (A) (A) (A) (A) (A)
                 (A) (A) (A) (A) (A) (A) (A) (A) (A) (A) (A) (A)
                 (A) (A) (A) (A) (A) (A) (A) (A) (A) (A) (A) (A)
                 (A) (A) (A) (A) (A) (A) (A) (A) (A) (A) (A) (A)
                 (A) (A) (A) (A) (A) (A) (A) (A) (A) (A) (A) (A)
                 (A) (A) (A) (A) (A) (A) (A) (A) (A) (A) (A) (A)
                 (A) (A) (A) (A) (A) (A) (A) (A) (A) (A) (A) (A)
                 (A) (A) (A) (A) (A) (A) (A) (A) (A) (A) (A) (A)
                 (A) (A) (A) (A) (A) (A) (A) (A) (A) (A) (A) (A)
                 (A) (A) (A) (A) (A) (A) (A) (A) (A) (A) (A) (A)
                 (A) (A) (A) (A) (A) (A) (A) (A) (A) (A) (A) (A)
                 (A) (A) (A) (A) (A) (A) (A) (A) (A) (A) (A) (A)
                 (A) (A) (A) (A) (A) (A) (A) (A) (A) (A) (A) (A)
                 (A) (A) (A) (A) (A) (A) (A) (A) (A) (A) (A) (A)
                 (A) (A) (A) (A) (A) (A) (A) (A) (A) (A) (A) (A)
                 (A) (A) (A) (A) (A) (A) (A) (A) (A) (A) (A) (A)
                 (A) (A) (A) (A) (A) (A) (A) (A) (A) (A) (A) (A)
                 (A) (A) (A) (A) (A) (A) (A) (A) (A) (A) (A) (A)
                 (A) (A) (A) (A) (A) (A) (A) (A) (A) (A) (A) (A)
                 (A) (A) (A) (A) (A) (A) (A) (A) (A) (A) (A) (A)
                 (A) (A) (A) (A) (A) (A) (A) (A) (A) (A) (A) (A)
                 (A) (A) (A) (A) (A) (A) (A) (A) (A) (A) (A) (A)
                 (A) (A) (A) (A) (A) (A) (A) (A) (A) (A) (A) (A)
                 (A) (A) (A) (A) (A) (A) (A) (A) (A) (A) (A) (A)
                 (A) (A) (A) (A) (A) (A) (A) (A) (A) (A) (A) (A)
                 (A) (A) (A) (A) (A)
 The electronic state is 1-A.
 Alpha  occ. eigenvalues -- -453.54087 -88.84581 -88.83591 -77.12059 -57.26008
 Alpha  occ. eigenvalues --  -52.03568 -52.03448 -52.03245 -19.19595 -19.14224
 Alpha  occ. eigenvalues --  -19.13954 -19.12827 -19.12120 -19.11749 -19.10978
 Alpha  occ. eigenvalues --  -14.37126 -14.36565 -14.35736 -14.35245 -14.32698
 Alpha  occ. eigenvalues --  -14.31125 -10.32566 -10.30454 -10.29042 -10.28813
 Alpha  occ. eigenvalues --  -10.28386 -10.24717 -10.24401 -10.23571 -10.23112
 Alpha  occ. eigenvalues --  -10.22925 -10.22356 -10.22024 -10.21964 -10.21337
 Alpha  occ. eigenvalues --  -10.21062 -10.20878 -10.20645 -10.19878 -10.19531
 Alpha  occ. eigenvalues --  -10.19115 -10.18922 -10.18823 -10.18482 -10.18080
 Alpha  occ. eigenvalues --  -10.17871  -7.91849  -7.90754  -7.61037  -6.60007
 Alpha  occ. eigenvalues --   -5.88214  -5.88028  -5.87269  -5.87176  -5.86809
 Alpha  occ. eigenvalues --   -5.86264  -5.74015  -5.73658  -5.72899  -4.76143
 Alpha  occ. eigenvalues --   -4.76135  -4.75945  -4.19363  -2.33577  -2.32513
 Alpha  occ. eigenvalues --   -2.31429  -2.10147  -2.10120  -2.09485  -2.09195
 Alpha  occ. eigenvalues --   -2.09064  -1.11077  -1.04867  -1.04141  -1.03791
 Alpha  occ. eigenvalues --   -1.02936  -1.01870  -1.01481  -0.94565  -0.93014
 Alpha  occ. eigenvalues --   -0.92458  -0.92173  -0.91764  -0.88957  -0.83808
 Alpha  occ. eigenvalues --   -0.81972  -0.78883  -0.77882  -0.77333  -0.77085
 Alpha  occ. eigenvalues --   -0.76860  -0.74908  -0.74345  -0.72917  -0.72713
 Alpha  occ. eigenvalues --   -0.69823  -0.68760  -0.68278  -0.67220  -0.65024
 Alpha  occ. eigenvalues --   -0.64335  -0.63747  -0.62360  -0.61714  -0.60660
 Alpha  occ. eigenvalues --   -0.60420  -0.59852  -0.58719  -0.58125  -0.57845
 Alpha  occ. eigenvalues --   -0.57193  -0.55750  -0.53887  -0.52722  -0.51720
 Alpha  occ. eigenvalues --   -0.51258  -0.50998  -0.50579  -0.50231  -0.49788
 Alpha  occ. eigenvalues --   -0.49589  -0.48794  -0.48717  -0.48272  -0.47698
 Alpha  occ. eigenvalues --   -0.47529  -0.47093  -0.46881  -0.45985  -0.45588
 Alpha  occ. eigenvalues --   -0.45536  -0.44973  -0.44601  -0.44161  -0.43649
 Alpha  occ. eigenvalues --   -0.43517  -0.43176  -0.43060  -0.42963  -0.42514
 Alpha  occ. eigenvalues --   -0.42230  -0.41603  -0.41414  -0.41308  -0.41044
 Alpha  occ. eigenvalues --   -0.40650  -0.40470  -0.40208  -0.39987  -0.39813
 Alpha  occ. eigenvalues --   -0.39526  -0.39274  -0.39217  -0.38802  -0.38418
 Alpha  occ. eigenvalues --   -0.38205  -0.38057  -0.37520  -0.37436  -0.37249
 Alpha  occ. eigenvalues --   -0.36892  -0.36782  -0.36586  -0.36314  -0.35897
 Alpha  occ. eigenvalues --   -0.35152  -0.34972  -0.34366  -0.33429  -0.33187
 Alpha  occ. eigenvalues --   -0.32813  -0.32614  -0.32153  -0.31809  -0.31054
 Alpha  occ. eigenvalues --   -0.30285  -0.30024  -0.29186  -0.28566  -0.28465
 Alpha  occ. eigenvalues --   -0.27610  -0.27358  -0.26681  -0.25881  -0.25408
 Alpha  occ. eigenvalues --   -0.25307  -0.25034  -0.24824  -0.24157  -0.23945
 Alpha  occ. eigenvalues --   -0.22280  -0.21880  -0.21503  -0.20680  -0.18452
 Alpha virt. eigenvalues --   -0.13016  -0.01055  -0.00774  -0.00338  -0.00050
 Alpha virt. eigenvalues --    0.00285   0.00881   0.01107   0.01582   0.02332
 Alpha virt. eigenvalues --    0.02802   0.03580   0.04587   0.05459   0.05887
 Alpha virt. eigenvalues --    0.06280   0.07307   0.07392   0.07506   0.08296
 Alpha virt. eigenvalues --    0.09227   0.09538   0.09984   0.10307   0.10378
 Alpha virt. eigenvalues --    0.10630   0.11195   0.11591   0.12040   0.12228
 Alpha virt. eigenvalues --    0.12864   0.13220   0.13245   0.13600   0.13961
 Alpha virt. eigenvalues --    0.14285   0.14724   0.15027   0.15159   0.15338
 Alpha virt. eigenvalues --    0.15640   0.15743   0.16172   0.16371   0.16607
 Alpha virt. eigenvalues --    0.16768   0.17278   0.17430   0.17875   0.18009
 Alpha virt. eigenvalues --    0.18261   0.18481   0.18603   0.18862   0.19129
 Alpha virt. eigenvalues --    0.19317   0.19691   0.20060   0.20539   0.20809
 Alpha virt. eigenvalues --    0.20913   0.21101   0.21234   0.21659   0.21982
 Alpha virt. eigenvalues --    0.22267   0.22646   0.22930   0.23036   0.23174
 Alpha virt. eigenvalues --    0.23724   0.24540   0.24647   0.25186   0.25246
 Alpha virt. eigenvalues --    0.25852   0.26132   0.26604   0.26838   0.27218
 Alpha virt. eigenvalues --    0.27971   0.28753   0.30069   0.30772   0.31440
 Alpha virt. eigenvalues --    0.32872   0.33076   0.33567   0.34420   0.34750
 Alpha virt. eigenvalues --    0.35395   0.35581   0.36032   0.36765   0.37583
 Alpha virt. eigenvalues --    0.37850   0.38707   0.38907   0.39272   0.39989
 Alpha virt. eigenvalues --    0.40907   0.41694   0.41949   0.42087   0.42755
 Alpha virt. eigenvalues --    0.43562   0.44106   0.44324   0.45157   0.45837
 Alpha virt. eigenvalues --    0.46941   0.47367   0.48089   0.48279   0.48589
 Alpha virt. eigenvalues --    0.49263   0.50351   0.50878   0.51582   0.52326
 Alpha virt. eigenvalues --    0.52618   0.52873   0.53265   0.53829   0.54134
 Alpha virt. eigenvalues --    0.54486   0.55125   0.55502   0.55763   0.56010
 Alpha virt. eigenvalues --    0.56474   0.56821   0.56963   0.57366   0.57581
 Alpha virt. eigenvalues --    0.57730   0.58461   0.58815   0.59089   0.59443
 Alpha virt. eigenvalues --    0.59743   0.60027   0.60283   0.60641   0.60889
 Alpha virt. eigenvalues --    0.61123   0.61369   0.62178   0.62241   0.62709
 Alpha virt. eigenvalues --    0.62945   0.63790   0.63929   0.64347   0.64565
 Alpha virt. eigenvalues --    0.64852   0.64940   0.65217   0.65821   0.66225
 Alpha virt. eigenvalues --    0.66505   0.66809   0.67529   0.68068   0.68217
 Alpha virt. eigenvalues --    0.68324   0.68446   0.68797   0.69521   0.69919
 Alpha virt. eigenvalues --    0.70129   0.71196   0.71392   0.72278   0.72534
 Alpha virt. eigenvalues --    0.72851   0.73197   0.73767   0.74289   0.74874
 Alpha virt. eigenvalues --    0.75335   0.75600   0.75839   0.76695   0.77453
 Alpha virt. eigenvalues --    0.78039   0.78145   0.78371   0.79470   0.79898
 Alpha virt. eigenvalues --    0.80085   0.80795   0.80875   0.81392   0.82014
 Alpha virt. eigenvalues --    0.82082   0.82241   0.82796   0.83043   0.83350
 Alpha virt. eigenvalues --    0.83669   0.84144   0.84495   0.84911   0.84958
 Alpha virt. eigenvalues --    0.85411   0.85535   0.85888   0.86056   0.86566
 Alpha virt. eigenvalues --    0.86839   0.87072   0.87269   0.87848   0.88217
 Alpha virt. eigenvalues --    0.88301   0.88510   0.88542   0.88747   0.89120
 Alpha virt. eigenvalues --    0.89427   0.89695   0.90057   0.90498   0.90876
 Alpha virt. eigenvalues --    0.91141   0.91450   0.91862   0.91879   0.92088
 Alpha virt. eigenvalues --    0.92528   0.92644   0.93100   0.93521   0.93744
 Alpha virt. eigenvalues --    0.94178   0.94493   0.94631   0.94947   0.95297
 Alpha virt. eigenvalues --    0.95351   0.95931   0.96308   0.96467   0.97074
 Alpha virt. eigenvalues --    0.97432   0.97650   0.98435   0.98527   0.98998
 Alpha virt. eigenvalues --    0.99513   0.99695   0.99839   1.00068   1.01106
 Alpha virt. eigenvalues --    1.01254   1.02069   1.02281   1.02768   1.03049
 Alpha virt. eigenvalues --    1.03472   1.03796   1.04462   1.04673   1.04960
 Alpha virt. eigenvalues --    1.05454   1.05923   1.06151   1.06490   1.06773
 Alpha virt. eigenvalues --    1.07845   1.08573   1.08851   1.09265   1.09669
 Alpha virt. eigenvalues --    1.10054   1.10418   1.12090   1.12608   1.12890
 Alpha virt. eigenvalues --    1.13471   1.14162   1.14718   1.16028   1.16288
 Alpha virt. eigenvalues --    1.16938   1.17260   1.18227   1.18482   1.19000
 Alpha virt. eigenvalues --    1.20196   1.20838   1.22498   1.22972   1.23835
 Alpha virt. eigenvalues --    1.25721   1.27229   1.27715   1.28341   1.29174
 Alpha virt. eigenvalues --    1.29728   1.30532   1.31076   1.32338   1.32841
 Alpha virt. eigenvalues --    1.34156   1.35082   1.35315   1.36170   1.36608
 Alpha virt. eigenvalues --    1.37691   1.38242   1.38751   1.39656   1.40964
 Alpha virt. eigenvalues --    1.41442   1.41787   1.42953   1.43740   1.44797
 Alpha virt. eigenvalues --    1.45464   1.46212   1.46788   1.47912   1.48851
 Alpha virt. eigenvalues --    1.49998   1.50195   1.50538   1.50656   1.50826
 Alpha virt. eigenvalues --    1.52028   1.52935   1.53263   1.54183   1.54678
 Alpha virt. eigenvalues --    1.55227   1.55659   1.56241   1.57284   1.57781
 Alpha virt. eigenvalues --    1.59207   1.60406   1.60843   1.62073   1.63240
 Alpha virt. eigenvalues --    1.63313   1.65270   1.65523   1.66261   1.67461
 Alpha virt. eigenvalues --    1.67756   1.68240   1.68507   1.69856   1.70463
 Alpha virt. eigenvalues --    1.71147   1.72413   1.73331   1.73934   1.74699
 Alpha virt. eigenvalues --    1.75371   1.75798   1.77172   1.77261   1.77807
 Alpha virt. eigenvalues --    1.78557   1.79583   1.80165   1.81101   1.82184
 Alpha virt. eigenvalues --    1.82530   1.82811   1.83847   1.84478   1.84967
 Alpha virt. eigenvalues --    1.85188   1.85650   1.86189   1.87426   1.87704
 Alpha virt. eigenvalues --    1.88068   1.89145   1.90064   1.90255   1.90615
 Alpha virt. eigenvalues --    1.91002   1.91078   1.91441   1.91855   1.92542
 Alpha virt. eigenvalues --    1.93017   1.93982   1.94109   1.94749   1.95061
 Alpha virt. eigenvalues --    1.95163   1.95849   1.96082   1.96621   1.96708
 Alpha virt. eigenvalues --    1.97147   1.97411   1.97534   1.97747   1.98072
[...]
 .00031973,0.00023985,0.00007133,0.00003005,-0.00002848,-0.00000552,0.0
 0035690,-0.00060057,-0.00044951,-0.00029933,0.00049619,-0.00032670,0.0
 0059588,0.00071512,0.00021320,-0.00083476,-0.00721020,0.00904910,0.007
 04786,0.00167481,-0.00681166,-0.00322487,0.00470114,-0.00216790,-0.001
 12300,-0.00032584,0.00120073,0.00053302,-0.00089679,-0.00019196,0.0001
 6278,0.00050546,0.00001848,-0.00013513,0.00066297,-0.00009893,-0.00033
 484,-0.00018395,-0.00003930,-0.00003142,-0.00012762,-0.00005360,-0.000
 09611,0.00032521,0.00011201,-0.00023619,0.00001859,0.00003561,-0.00005
 197,-0.00002222,-0.00004766,0.00001039,-0.00004827,-0.00001088,0.00000
 502,-0.00002395,0.00001792,-0.00002142,-0.00003302,0.00000218,-0.00001
 335,0.00000130,-0.00003277,0.00007659,-0.00013429,-0.00000769,-0.00002
 132,-0.00001947,0.00001419,-0.00002339,-0.00005668,0.00002263,-0.00004
 715,0.00005983,0.00001851,-0.00017343,-0.00019180,0.00009193,0.0000778
 5,0.00029298,-0.00035153,0.00025250,-0.00036714,-0.00025281,-0.0002423
 5,0.00202198,-0.00046589,-0.00046024,0.00018823,-0.00027287,-0.0001031
 7,0.00026443,-0.00013245,-0.00012136,-0.00058313,-0.00017207,-0.000250
 33,-0.00002969,-0.00000061,0.00004113,-0.00033614,-0.00004841,-0.00018
 115,-0.00036827,0.00035330,0.00058138,0.00058049,0.00079704,0.00057014
 ,-0.01206914,0.01924241,-0.01601415,-0.00057737,-0.00027512,0.00005409
 ,0.00008402,-0.00006057,-0.00001937,-0.00168244,0.00022174,0.00068039,
 0.00111275,-0.00010331,0.00035529,0.00000783,-0.00005394,-0.00005018,0
 .00002571,0.00016950,-0.00018144,-0.00005325,-0.00002331,0.00003612,-0
 .11596836,0.11079440,-0.07333198,0.11319970,-0.00071636,0.00020527,-0.
 00007693,-0.00002242,0.00027739,0.00015339,0.00002859,-0.00013420,0.00
 004222,0.00003370,0.00001723,-0.00001508,-0.00003691,-0.00001479,-0.00
 001912,0.00028015,-0.00006141,0.00006589,-0.00007019,-0.00013940,0.000
 00145,0.00008917,-0.00001401,0.00011524,0.00011874,-0.00018479,-0.0000
 1566,-0.00000647,0.00000853,0.00000856,-0.00000896,-0.00000521,-0.0000
 2755,0.00003170,0.00007477,-0.00002874,0.00007178,-0.00005368,0.000029
 32,-0.00006502,0.00003618,0.00002696,0.00000947,-0.00003413,-0.0000032
 1,-0.00000610,0.00005219,0.00005297,0.00001472,-0.00002156,0.00000068,
 0.00000724,-0.00002199,0.00000879,-0.00000093,-0.00000064,0.00000055,0
 .00018355,-0.00002175,-0.00011242,-0.00000128,-0.00001589,0.00026406,-
 0.00004400,-0.00004084,0.00005527,-0.00008242,0.00002188,-0.00006182,0
 .00145003,0.00271278,0.00050454,0.00002539,-0.00011312,-0.00003539,-0.
 00001690,0.00002947,-0.00002096,-0.00007786,0.00033818,-0.00018327,0.0
 0003725,-0.00035712,0.00021364,-0.00024605,-0.00005570,0.00020242,-0.0
 0036142,-0.00034129,-0.00029224,-0.00002724,-0.00012296,0.00013317,-0.
 00003745,0.00003788,-0.00009654,0.00000187,0.00064431,0.00000316,0.000
 21576,-0.00046328,-0.00017987,-0.00004268,-0.00035194,0.00021180,-0.00
 006465,0.00026309,-0.00007889,0.00043748,-0.00051313,-0.00200020,-0.00
 053215,0.00039992,0.00083380,-0.00028723,-0.00014885,-0.00011263,0.000
 14238,0.00000684,-0.00095367,0.00001283,0.00064921,0.00144427,0.000726
 97,-0.00025896,-0.00003837,-0.00018380,-0.00130703,-0.00103676,0.00547
 662,-0.00507232,-0.00306398,-0.00393551,0.00010383,0.00099004,-0.00239
 494,0.00108275,0.00031203,0.00010959,-0.00043896,-0.00038366,0.0006632
 6,0.00020170,-0.00006784,-0.00037995,-0.00011137,0.00001559,-0.0004027
 4,0.00003407,0.00017619,0.00000754,-0.00002517,-0.00001502,-0.00006436
 ,0.00002628,0.00000003,0.00002430,0.00015014,0.00015395,0.00001519,-0.
 00002532,-0.00000312,0.00000122,0.00005928,0.00001776,0.00001567,0.000
 01919,-0.00000848,0.00000685,-0.00002147,0.00001699,0.00001785,0.00000
 857,-0.00001221,0.00008850,0.00011679,-0.00008087,0.00020886,-0.000015
 14,0.00005691,0.00005210,-0.00003307,-0.00003376,0.00005225,-0.0000319
 2,0.00009375,-0.00012450,-0.00000448,0.00003490,0.00005877,0.00055602,
 0.00030577,-0.00095054,-0.00157078,0.00142139,0.00000117,0.00011381,0.
 00010629,0.00059181,-0.00079113,-0.00291739,-0.00009812,0.00013192,0.0
 0009118,-0.00004383,0.00009531,0.00005613,0.00033157,0.00010739,0.0001
 4369,0.00002659,0.00000193,-0.00002363,0.00014476,-0.00022754,0.000103
 06,-0.00540179,-0.00175048,0.00257644,-0.00012082,0.00047413,-0.000848
 26,0.02038054,-0.02442022,-0.00048014,-0.00229559,-0.00051731,0.001206
 59,-0.00007459,0.00000431,0.00010028,0.00125801,0.00471783,-0.00006717
 ,0.00214423,-0.00200713,-0.00195572,0.00010842,-0.00005706,0.00014789,
 0.00016968,0.00011298,0.00035437,0.00019639,-0.00003130,-0.00015154,0.
 07916123,-0.18685116,0.15246869,-0.10777367,0.22938301,-0.00110900,-0.
 00019181,-0.00055015,-0.00014792,0.00013502,-0.00006139,0.00002915,-0.
 00004865,0.00006871,0.00003006,0.00000535,-0.00001398,-0.00001462,-0.0
 0000842,-0.00000093,0.00005416,0.00001028,-0.00001060,-0.00000912,-0.0
 0003556,0.00001856,-0.00004478,-0.00000071,0.00000186,0.00004672,-0.00
 004071,-0.00001612,-0.00000158,0.00000523,-0.00000768,-0.00000304,-0.0
 0000258,0.00000105,-0.00001193,0.00001717,-0.00001873,-0.00000755,0.00
 000227,-0.00000164,0.00000035,-0.00000819,0.00000356,0.00001442,-0.000
 00460,-0.00000443,-0.00001093,0.00002267,0.00001922,0.00000900,-0.0000
 0604,0.00000869,0.00000034,-0.00000327,-0.00000367,0.00000413,-0.00000
 281,-0.00000440,0.00009424,-0.00002502,-0.00002360,0.00001311,0.000009
 42,0.00005246,-0.00003096,0.00001066,-0.00001143,-0.00002109,0.0000183
 5,0.00000463,0.00090677,-0.00012888,-0.00046101,-0.00004774,-0.0000377
 6,-0.00000824,0.00000969,0.00003301,-0.00003169,0.00030122,0.00007252,
 0.00034310,-0.00017510,0.00011329,-0.00025498,0.00028148,0.00008775,0.
 00010380,0.00001541,-0.00021973,0.00006873,-0.00022683,-0.00017921,-0.
 00010670,0.00003171,-0.00000278,-0.00002357,0.00020116,0.00048176,-0.0
 0015308,0.00003852,-0.00025984,-0.00003435,-0.00015199,-0.00020960,0.0
 0030225,0.00000668,0.00003594,-0.00014235,0.00040244,-0.00025144,-0.00
 219919,-0.00101948,0.00068277,0.00061354,-0.00008230,-0.00009273,-0.00
 003674,0.00012823,-0.00001756,-0.00007040,-0.00001852,0.00089504,0.001
 85362,0.00079336,-0.00140471,0.00096385,-0.00012343,0.00016595,-0.0001
 7521,-0.00065056,0.00368958,0.00423295,-0.00030111,-0.00278497,-0.0062
 9246,0.00224236,-0.00162248,-0.00079312,-0.00009173,0.00037381,0.00043
 790,-0.00026580,-0.00006043,0.00009275,0.00014466,-0.00003043,-0.00010
 440,0.00025355,-0.00003702,-0.00015643,-0.00004052,-0.00003365,-0.0000
 0370,-0.00002781,0.00001265,-0.00000689,-0.00010859,-0.00001666,0.0000
 6041,0.00000531,0.00000939,-0.00001728,0.00000352,0.00001707,0.0000200
 9,-0.00000311,0.00000727,0.00000013,-0.00000843,-0.00000934,0.00000110
 ,-0.00000333,0.00001072,-0.00001516,0.00011740,0.00006090,-0.00002876,
 0.00006078,0.00000777,0.00001305,-0.00001435,-0.00001098,-0.00001474,0
 .00000264,-0.00001050,0.00004904,-0.00005715,0.00002040,-0.00007236,0.
 00002624,0.00014373,-0.00002393,0.00012750,0.00086896,0.00048215,-0.00
 022783,-0.00001115,-0.00030979,0.00081768,-0.00279180,-0.00447851,0.00
 010847,-0.00013601,-0.00006760,0.00016416,-0.00004148,-0.00002679,-0.0
 0031872,-0.00004636,-0.00006878,-0.00000118,-0.00000603,0.00001911,-0.
 00005230,-0.00021809,-0.00024895,-0.00011042,-0.00035385,0.00078234,-0
 .00016130,0.00026200,-0.00064873,0.01064173,-0.02304787,0.01092760,-0.
 00037054,-0.00003981,0.00026871,0.00008475,-0.00002125,-0.00001011,0.0
 0343547,-0.00058790,-0.00205988,-0.00000076,-0.00143862,-0.00064811,0.
 00006637,0.00000013,0.00000914,0.00006875,0.00002595,0.00019626,0.0002
 8173,-0.00025600,-0.00015284,-0.07873654,0.18812043,-0.17375392,0.0692
 3499,-0.16368523,0.17987408,-0.00003577,-0.00029434,-0.00035209,-0.000
 19169,-0.00006184,-0.00022352,0.00001604,0.00000170,0.00004349,0.00002
 315,-0.00000318,-0.00000377,0.00000345,0.00000559,-0.00000572,0.000011
 69,-0.00003194,0.00005431,0.00005951,0.00002281,-0.00002158,-0.0000466
 7,0.00000747,-0.00001267,0.00002960,0.00001191,-0.00001287,0.00000421,
 -0.00000548,-0.00001203,0.00000726,0.00000183,0.00001629,0.00001828,-0
 .00000182,-0.00000264,-0.00002677,0.00000503,-0.00000235,-0.00003965,-
 0.00001996,0.00001725,0.00003350,0.00000728,0.00000516,-0.00001669,0.0
 0001222,0.00002132,0.00001513,0.00000040,0.00002195,-0.00000874,0.0000
 0749,-0.00001700,0.00000201,-0.00000022,-0.00000822,-0.00022647,0.0001
 4492,0.00006540,-0.00003419,-0.00007222,-0.00023711,0.00001922,0.00000
 886,-0.00004451,0.00015068,-0.00002540,0.00007266,0.00030382,0.0002478
 9,-0.00016318,0.00052595,0.00000432,-0.00035380,0.00007372,0.00028000,
 0.00048616,0.00002315,0.00109859,0.00077374,0.00009412,-0.00045036,-0.
 00037427,-0.00459109,-0.00081879,-0.00123958,-0.00291561,-0.00147523,-
 0.00032615,-0.00020457,-0.00053858,-0.00045499,0.00007470,-0.00003537,
 0.00022424,0.00071213,0.00174608,-0.00002238,-0.00056290,-0.00129877,-
 0.00068169,-0.00072022,-0.00073019,0.00040636,-0.00007668,0.00018735,0
 .00007123,0.00028999,-0.00007670,-0.00028484,-0.00033341,0.00002640,0.
 00016747,0.00025053,0.00004870,0.00009667,-0.00011709,-0.00002885,0.00
 034177,-0.00046215,-0.00020450,0.00019995,0.00013988,0.00017844,-0.000
 12475,0.00016905,0.00000661,-0.00017620,0.00033183,0.00037532,0.000148
 76,-0.00110584,-0.00055524,0.00016573,-0.00025248,-0.00012631,0.000075
 62,-0.00007327,0.00004026,-0.00004848,0.00004929,0.00022135,0.00003310
 ,-0.00004056,-0.00016353,-0.00000985,0.00001163,-0.00008171,-0.0000088
 8,0.00093528,0.00050883,-0.00012820,0.00011003,-0.00005001,0.00009164,
 0.00340283,0.00182218,0.00075991,0.00001182,0.00002485,-0.00002630,-0.
 00006375,0.00002542,0.00000142,0.00015869,-0.00012219,0.00001166,-0.00
 004268,0.00000380,0.00006762,-0.00001829,-0.00003891,-0.00005593,0.000
 00948,0.00015102,-0.00003104,-0.00011406,0.00000550,-0.00000856,-0.000
 04983,-0.00002237,-0.00004857,-0.00002536,-0.00001296,0.00002731,0.000
 18703,-0.00003591,-0.00028437,-0.00007272,0.00004457,0.00004795,0.0000
 4119,-0.00018281,0.00017304,-0.00003826,-0.00000280,-0.00002538,0.0009
 4688,-0.00070279,-0.00057121,0.00001175,-0.00002308,0.00002639,0.00004
 206,0.00007434,0.00001225,-0.00001330,0.00013828,-0.00010749,-0.000030
 07,0.00004360,-0.00001406,-0.00011661,0.00000934,-0.00004659,-0.000877
 19,0.00302575,0.00191174,-0.00008815,-0.00136005,0.00072203,-0.0235706
 4,-0.01523628,0.00741721,0.00072764,0.00034878,-0.00039592,-0.00018562
 ,0.00024729,0.00006327,0.00229392,-0.00236840,-0.00140340,-0.00076891,
 0.00001936,0.00051504,0.00004010,0.00004587,-0.00008066,0.00046374,0.0
 0115087,-0.00004508,0.00007878,-0.00015708,-0.00011199,-0.24887857,-0.
 14990393,0.09200461,0.01665830,0.01176767,-0.00649045,0.25747348,0.000
 08034,-0.00001181,0.00005694,-0.00012596,0.00003128,-0.00005074,0.0000
 2535,-0.00003632,0.00002554,0.00002135,0.00000218,-0.00001075,-0.00000
 946,-0.00000073,0.00000464,0.00002910,-0.00001762,-0.00000358,-0.00000
 112,-0.00001450,0.00001176,-0.00004734,0.00003109,-0.00002690,0.000039
 42,-0.00002919,-0.00000815,-0.00000570,0.00001464,-0.00000810,-0.00000
 692,-0.00000375,0.00000279,-0.00000711,-0.00001036,0.00002289,-0.00001
 781,0.00000939,-0.00001159,0.00000916,-0.00000835,-0.00000718,-0.00000
 090,0.00000976,-0.00000682,-0.00000900,0.00002212,0.00001581,0.0000093
 9,-0.00000345,0.00000930,0.00000152,-0.00000568,-0.00000584,0.00000299
 ,-0.00000390,-0.00000276,-0.00005501,0.00000745,-0.00000706,0.00002236
 ,0.00013170,-0.00003209,0.00006901,-0.00005393,0.00000249,-0.00000129,
 -0.00000874,0.00000973,-0.00123604,-0.00088374,0.00029207,0.00045496,-
 0.00016606,-0.00040211,0.00053004,0.00050825,0.00046190,0.00012467,0.0
 0112635,0.00001023,-0.00007439,-0.00056721,0.00012925,-0.00289513,-0.0
 0134215,-0.00194624,0.00018244,-0.00254108,0.00184970,-0.00022607,-0.0
 0045174,-0.00005146,0.00004876,0.00001986,-0.00003230,0.00046477,0.001
 84694,-0.00034867,-0.00005555,-0.00129404,-0.00061410,-0.00048502,-0.0
 0070724,0.00068413,-0.00003595,0.00006102,-0.00006594,0.00053396,-0.00
 046378,-0.00128190,-0.00053648,0.00029245,0.00038250,0.00000564,-0.000
 03350,0.00008696,-0.00003622,0.00001976,0.00015384,0.00044704,0.000837
 29,0.00073211,-0.00019453,-0.00022427,0.00034047,-0.00012521,0.0000458
 8,0.00014197,0.00126903,-0.00090731,-0.00050195,-0.00022090,0.00133251
 ,-0.00025330,-0.00071700,0.00010939,0.00000097,0.00005926,-0.00019553,
 -0.00010787,0.00026167,0.00013954,-0.00001939,-0.00015351,-0.00009603,
 0.00000290,-0.00013456,-0.00001595,0.00006062,0.00029895,0.00015570,-0
 .00007084,0.00014717,0.00013900,0.00008690,0.00115696,0.00076712,0.001
 14054,-0.00003016,0.00000590,0.00001303,-0.00001305,0.00007619,0.00001
 282,0.00017842,-0.00005911,0.00001437,-0.00002673,-0.00001652,0.000064
 29,-0.00000106,-0.00001914,-0.00002848,0.00009319,0.00007966,-0.000100
 18,-0.00000915,0.00001884,0.00000763,-0.00002086,-0.00002452,-0.000017
 52,-0.00000554,-0.00000307,0.00004764,-0.00006271,-0.00002605,-0.00029
 890,0.00003531,-0.00002194,-0.00004085,-0.00002521,-0.00000290,-0.0000
 7762,0.00001645,0.00008558,-0.00005333,-0.00090646,-0.00159361,-0.0001
 7281,-0.00002989,0.00003794,0.00002987,0.00001342,0.00005069,0.0000342
 8,0.00008816,0.00006197,0.00005326,0.00000092,0.00001934,-0.00001647,0
 .00004453,0.00004705,-0.00001228,0.00450309,-0.00305205,-0.00271162,0.
 00054855,0.00102196,0.00006271,0.01702696,0.01794032,-0.00941072,0.000
 24517,-0.00014449,-0.00012254,0.00028371,-0.00016052,-0.00024408,0.003
 21997,0.00080061,-0.00144819,-0.00039476,-0.00024814,0.00044683,-0.000
 11382,-0.00006254,-0.00001657,-0.00003540,-0.00143457,-0.00025895,0.00
 002406,-0.00003994,-0.00001560,-0.15509766,-0.20180920,0.08914539,-0.0
 2159463,-0.01447536,0.00404531,0.15316401,0.20538493,0.00032781,0.0007
 2060,0.00060363,0.00021322,-0.00033582,0.00033942,-0.00005696,0.000114
 33,-0.00004638,-0.00004188,-0.00000409,0.00000245,0.00004706,0.0000026
 0,-0.00001433,0.00000137,-0.00007909,0.00004752,0.00008951,0.00008737,
 -0.00006170,0.00008560,-0.00002640,0.00006433,-0.00006433,0.00008696,0
 .00001823,-0.00000410,-0.00003245,-0.00002078,0.00001565,0.00000687,0.
 00000205,0.00000018,0.00001800,0.00001812,0.00002130,-0.00001559,0.000
 01448,0.00005901,0.00002280,-0.00000484,-0.00002567,-0.00000808,-0.000
 01920,0.00001333,-0.00005504,-0.00004855,-0.00002146,0.00001310,-0.000
 01808,-0.00001471,0.00002000,0.00000875,0.00001199,0.00001010,0.000004
 74,-0.00029774,0.00027014,-0.00000656,-0.00021052,-0.00020460,-0.00004
 651,0.00001431,0.00001212,0.00002309,0.00008483,-0.00004085,-0.0000105
 0,-0.00066660,0.00009268,0.00079191,-0.00059340,-0.00002084,0.00037400
 ,-0.00031088,-0.00036920,-0.00059808,0.00045292,-0.00082824,0.00025518
 ,-0.00024541,0.00056231,-0.00031838,0.00431569,-0.00007925,0.00259325,
 -0.00417720,0.00045148,-0.00494053,-0.00023521,0.00021350,0.00005123,0
 .00008586,0.00003514,-0.00022290,0.00028530,-0.00211195,-0.00081337,-0
 .00038437,0.00139426,0.00138369,0.00083883,0.00108533,0.00050287,0.000
 21089,-0.00077427,-0.00013133,-0.00001937,-0.00004269,0.00007810,-0.00
 010866,0.00020023,-0.00018235,-0.00043348,-0.00008547,-0.00024421,0.00
 022064,0.00013224,-0.00059109,0.00075420,0.00053265,-0.00051617,-0.000
 00855,-0.00014796,0.00055444,-0.00012226,-0.00000938,-0.00007120,-0.00
 139473,0.00116083,0.00113043,0.00064772,-0.00197296,-0.00045421,0.0010
 3392,-0.00022598,-0.00015489,-0.00010190,0.00020079,0.00019438,-0.0001
 6496,-0.00012971,0.00011178,0.00009999,0.00006527,-0.00008730,0.000122
 37,0.00002633,-0.00011181,-0.00119468,-0.00062352,0.00004277,-0.000488
 23,0.00001546,-0.00011760,0.00059484,0.00080810,-0.00189739,0.00006561
 ,-0.00000033,-0.00005834,0.00003113,0.00000834,0.00003684,-0.00017650,
 0.00012074,-0.00001783,0.00001629,0.00000503,-0.00005716,-0.00005356,0
 .00005647,0.00005086,0.00002896,-0.00014362,0.00001184,0.00018935,-0.0
 0001065,0.00002525,0.00008359,0.00005605,0.00008146,-0.00002426,0.0001
 3914,-0.00000596,-0.00070501,-0.00032854,-0.00037840,0.00008812,0.0000
 2847,-0.00003149,-0.00004095,0.00006069,-0.00008001,-0.00006732,0.0000
 1777,-0.00008150,-0.00119515,-0.00145323,0.00062891,0.00003563,-0.0000
 4470,-0.00004854,0.00004826,-0.00008457,-0.00002123,-0.00012338,-0.000
 06887,0.00003871,0.00001954,-0.00003912,0.00003241,0.00001926,0.000024
 14,0.00004873,0.00074458,-0.00276251,0.00207451,0.00056806,0.00026430,
 0.00073744,0.01823809,0.00605198,-0.01247634,-0.00049406,-0.00013434,0
 .00033953,-0.00006015,-0.00001074,-0.00015385,-0.00221880,0.00238140,-
 0.00011316,0.00028739,0.00020668,-0.00108721,-0.00003577,-0.00001751,0
 .00004771,0.00010613,-0.00055565,0.00076609,-0.00006000,0.00016502,0.0
 0012502,0.06066265,0.06183681,-0.05598945,0.01702252,0.01386521,-0.007
 46493,-0.09226135,-0.07977204,0.07555954\\-0.00000549,0.00000868,0.000
 00079,-0.00000197,-0.00000397,-0.00000658,0.00000854,-0.00000610,0.000
 01180,-0.00000185,0.00000314,-0.00000041,-0.00000051,0.00000055,-0.000
 00254,-0.00000134,0.00000626,0.00000161,-0.00000202,0.00000433,-0.0000
 0085,0.00000482,-0.00000310,0.00000257,0.00000099,0.00000221,0.0000018
 1,0.00000241,-0.00000510,0.00000112,-0.00000072,-0.00000142,0.00000299
 ,-0.00000324,-0.00000572,-0.00000202,0.00000248,0.00000603,-0.00000181
 ,0.00000019,0.00000435,0.00000360,0.00000077,0.00000119,0.00000070,-0.
 00000383,0.00000350,0.00000718,0.00000027,-0.00000198,-0.00000239,-0.0
 0000049,0.00000042,0.00000006,0.00000336,-0.00000282,0.00000118,-0.000
 00812,-0.00000489,0.00000365,0.00000308,-0.00000176,-0.00000119,0.0000
 0054,0.00000131,-0.00000263,0.00000402,-0.00000066,-0.00000258,0.00000
 598,0.00000199,-0.00001380,0.00000060,0.00000202,-0.00000308,0.0000002
 3,-0.00000161,0.00000246,0.00000586,0.00000091,-0.00000861,-0.00000432
 ,-0.00000167,0.00000119,0.00000280,0.00000130,-0.00000220,-0.00000420,
 0.00000057,0.00000474,-0.00000969,-0.00000271,-0.00000476,0.00000639,-
 0.00000267,0.00000019,-0.00000331,-0.00001010,0.00001961,-0.00000285,0
 .00000198,-0.00001229,-0.00000338,0.00000337,-0.00000540,-0.00000124,-
 0.00000861,-0.00000576,0.00000447,0.00002703,0.00000456,-0.00000544,-0
 .00001267,-0.00000203,0.00000601,0.00000337,0.00000540,-0.00000579,0.0
 0000782,0.00001553,0.00001178,0.00000174,-0.00001167,-0.00000676,-0.00
 000041,-0.00001027,-0.00000312,-0.00000608,0.00000840,-0.00000492,-0.0
 0002899,0.00002292,-0.00000009,0.00001999,-0.00000954,0.00000106,0.000
 01448,-0.00000757,0.00000650,0.00000641,-0.00000473,-0.00000318,-0.000
 01601,0.00000656,0.00000048,0.00000724,0.00000009,0.00000176,0.0000013
 9,-0.00000393,0.00000034,-0.00000089,-0.00000197,0.00000121,0.00000022
 ,-0.00000095,0.00000138,-0.00000515,-0.00000348,-0.00000099,-0.0000008
 3,-0.00000197,-0.00000112,-0.00000142,-0.00000301,-0.00000083,-0.00000
 261,-0.00000159,0.00000018,0.00000041,-0.00000127,0.,-0.00000268,0.000
 00006,-0.00000254,-0.00000240,0.00000271,0.00000321,-0.00000695,-0.000
 00710,0.00000167,-0.00000570,0.00000515,-0.00000174,-0.00000048,0.0000
 0356,-0.00000047,-0.00000237,0.00000278,0.00000092,-0.00000014,0.00000
 239,0.00000298,0.00000616,-0.00000041,0.00000021,0.00000136,0.00000536
 ,-0.00000227,0.00000234,0.00000270,0.00000171,-0.00000012,0.00000193,-
 0.00000196,-0.00000185,0.00000186,0.00000232,-0.00000184,0.00000213,-0
 .00000119,0.00000043,-0.00000056,-0.00000674,-0.00000650,-0.00000577,0
 .00000019,0.00001468,0.00000966,-0.00000257,0.00000481,0.00000133,0.00
 000453,-0.00001211,-0.00000414,-0.00000269,-0.00000206,0.00000361,-0.0
 0000059,0.00000016,-0.00000112,-0.00000570,0.00001165,0.00000187,0.000
 00710,-0.00000168,-0.00000902,0.00000230,0.00000250,-0.00000071,0.0000
 0116,-0.00000015,-0.00000225,0.00000045,0.00000175,-0.00000019,-0.0000
 0522,0.00000574,-0.00000352,0.00000250,-0.00000871,0.00000272,0.000004
 72,-0.00000013,-0.00000282\\\@


 THERE IS NO CURE FOR BIRTH AND DEATH SAVE TO ENJOY THE INTERVAL.

                               -- GEORGE SANTAYANA
 Job cpu time:       0 days 15 hours 21 minutes 35.8 seconds.
 File lengths (MBytes):  RWF=   5706 Int=      0 D2E=      0 Chk=     44 Scr=      1
 Normal termination of Gaussian 09 at Wed May  3 07:18:19 2023.
