 Entering Gaussian System, Link 0=g09
 Input=au-1to3-ts-2-af21-c-term-level3-freq-se-new-p.com
 Output=au-1to3-ts-2-af21-c-term-level3-freq-se-new-p.log
 Initial command:
 /home/scr/programs/g09/l1.exe "/home/scr/guest2/Gau-25964.inp" -scrdir="/home/scr/guest2/"
 Entering Link 1 = /home/scr/programs/g09/l1.exe PID=     25965.
  
 Copyright (c) 1988,1990,1992,1993,1995,1998,2003,2009,2013,
            Gaussian, Inc.  All Rights Reserved.
  
 This is part of the Gaussian(R) 09 program.  It is based on
 the Gaussian(R) 03 system (copyright 2003, Gaussian, Inc.),
 the Gaussian(R) 98 system (copyright 1998, Gaussian, Inc.),
 the Gaussian(R) 94 system (copyright 1995, Gaussian, Inc.),
 the Gaussian 92(TM) system (copyright 1992, Gaussian, Inc.),
 the Gaussian 90(TM) system (copyright 1990, Gaussian, Inc.),
 the Gaussian 88(TM) system (copyright 1988, Gaussian, Inc.),
 the Gaussian 86(TM) system (copyright 1986, Carnegie Mellon
 University), and the Gaussian 82(TM) system (copyright 1983,
 Carnegie Mellon University). Gaussian is a federally registered
 trademark of Gaussian, Inc.
  
 This software contains proprietary and confidential information,
 including trade secrets, belonging to Gaussian, Inc.
  
 This software is provided under written license and may be
 used, copied, transmitted, or stored only in accord with that
 written license.
  
 The following legend is applicable only to US Government
 contracts under FAR:
  
                    RESTRICTED RIGHTS LEGEND
  
 Use, reproduction and disclosure by the US Government is
 subject to restrictions as set forth in subparagraphs (a)
 and (c) of the Commercial Computer Software - Restricted
 Rights clause in FAR 52.227-19.
  
 Gaussian, Inc.
 340 Quinnipiac St., Bldg. 40, Wallingford CT 06492
  
  
 ---------------------------------------------------------------
 Warning -- This program may not be used in any manner that
 competes with the business of Gaussian, Inc. or will provide
 assistance to any competitor of Gaussian, Inc.  The licensee
 of this program is prohibited from giving any competitor of
 Gaussian, Inc. access to this program.  By using this program,
 the user acknowledges that Gaussian, Inc. is engaged in the
 business of creating and licensing software in the field of
 computational chemistry and represents and warrants to the
 licensee that it is not a competitor of Gaussian, Inc. and that
 it will not use this program in any manner prohibited above.
 ---------------------------------------------------------------
  

 Cite this work as:
 Gaussian 09, Revision D.01,
 M. J. Frisch, G. W. Trucks, H. B. Schlegel, G. E. Scuseria, 
 M. A. Robb, J. R. Cheeseman, G. Scalmani, V. Barone, B. Mennucci, 
 G. A. Petersson, H. Nakatsuji, M. Caricato, X. Li, H. P. Hratchian, 
 A. F. Izmaylov, J. Bloino, G. Zheng, J. L. Sonnenberg, M. Hada, 
 M. Ehara, K. Toyota, R. Fukuda, J. Hasegawa, M. Ishida, T. Nakajima, 
 Y. Honda, O. Kitao, H. Nakai, T. Vreven, J. A. Montgomery, Jr., 
 J. E. Peralta, F. Ogliaro, M. Bearpark, J. J. Heyd, E. Brothers, 
 K. N. Kudin, V. N. Staroverov, T. Keith, R. Kobayashi, J. Normand, 
 K. Raghavachari, A. Rendell, J. C. Burant, S. S. Iyengar, J. Tomasi, 
 M. Cossi, N. Rega, J. M. Millam, M. Klene, J. E. Knox, J. B. Cross, 
 V. Bakken, C. Adamo, J. Jaramillo, R. Gomperts, R. E. Stratmann, 
 O. Yazyev, A. J. Austin, R. Cammi, C. Pomelli, J. W. Ochterski, 
 R. L. Martin, K. Morokuma, V. G. Zakrzewski, G. A. Voth, 
 P. Salvador, J. J. Dannenberg, S. Dapprich, A. D. Daniels, 
 O. Farkas, J. B. Foresman, J. V. Ortiz, J. Cioslowski, 
 and D. J. Fox, Gaussian, Inc., Wallingford CT, 2013.
 
 ******************************************
 Gaussian 09:  EM64L-G09RevD.01 24-Apr-2013
                 4-May-2023 
 ******************************************
 %mem=30000MB
 %nprocshared=8
 Will use up to    8 processors via shared memory.
 ----------------------------------------
 # opt freq=noraman b3lyp/gen pseudo=read
 ----------------------------------------
 1/14=-1,18=20,19=15,26=3,38=1/1,3;
 2/9=110,12=2,17=6,18=5,40=1/2;
 3/5=7,11=2,16=1,17=8,25=1,30=1,71=1,74=-5/1,2,3;
 4//1;
 5/5=2,38=5/2;
 6/7=2,8=2,9=2,10=2,28=1/1;
 7//1,2,3,16;
 1/14=-1,18=20,19=15,26=3/3(2);
 2/9=110/2;
 99//99;
 2/9=110/2;
 3/5=7,6=1,11=2,16=1,17=8,25=1,30=1,71=1,74=-5,82=7/1,2,3;
 4/5=5,16=3,69=1/1;
 5/5=2,38=5/2;
 7//1,2,3,16;
 1/14=-1,18=20,19=15,26=3/3(-5);
 2/9=110/2;
 6/7=2,8=2,9=2,10=2,19=2,28=1/1;
 99/9=1/99;
 -------------------
 Title Card Required
 -------------------
 Symbolic Z-matrix:
 Charge =  0 Multiplicity = 1
 Au                   -2.22895   0.28274  -0.95107 
 P                    -3.98767  -0.78178   0.41852 
 C                    -5.49837   0.25619   0.76764 
 H                    -6.35075  -0.43378   0.79642 
 H                    -5.63581   0.90081  -0.10824 
 C                    -3.3822   -1.33211   2.08291 
 H                    -4.23051  -1.78737   2.61025 
 H                    -3.11576  -0.42059   2.62671 
 C                    -4.69733  -2.28041  -0.42479 
 H                    -3.85564  -2.844    -0.83845 
 H                    -5.25399  -1.89573  -1.28916 
 C                    -5.47538   1.1042    2.04688 
 H                    -5.39501   0.48483   2.94621 
 H                    -4.64857   1.81671   2.04024 
 H                    -6.41185   1.66875   2.11928 
 C                    -5.58439  -3.20195   0.42404 
 H                    -5.96453  -4.01732  -0.20203 
 H                    -5.02731  -3.65486   1.25057 
 H                    -6.45157  -2.68252   0.84597 
 C                    -2.17779  -2.27941   2.04964 
 H                    -1.30313  -1.77054   1.63727 
 H                    -1.92934  -2.60156   3.06606 
 H                    -2.36749  -3.17818   1.45453 
 S                    -2.80228   2.50565  -0.16491 
 N                     5.23019  -1.62389   3.2744 
 C                     4.04409  -1.8688    2.44699 
 C                     4.3546   -1.61312   0.9592 
 O                     4.98808  -0.60959   0.63672 
 C                     2.93394  -0.91483   2.94671 
 O                     1.67699  -1.08966   2.30056 
 N                     3.96704  -2.517     0.00463 
 C                     3.16641  -3.71974   0.17486 
 C                     1.69645  -3.45856   0.54264 
 O                     1.26231  -3.8105    1.64437 
 N                     0.91343  -2.82354  -0.35357 
 C                     1.2576   -2.30265  -1.65448 
 C                     2.02442  -0.96696  -1.69373 
 O                     2.79696  -0.77338  -2.63627 
 C                    -0.01179  -2.1711   -2.53651 
 S                    -1.65335  -1.94899  -1.74034 
 N                     1.7355   -0.04278  -0.7468 
 C                     2.00536   1.3651   -1.00027 
 C                     0.69779   2.16851  -1.16849 
 C                     2.82904   1.94713   0.16789 
 O                     2.32215   2.11026   1.27541 
 N                     4.11718   2.30506  -0.09555 
 C                     4.94422   1.84406  -1.19669 
 C                     6.39447   1.85263  -0.75298 
 O                     6.79972   2.28197   0.30442 
 O                     7.19956   1.3444   -1.7075 
 H                     2.85295  -1.06007   4.03222 
 H                     3.2246    0.12113   2.75415 
 H                     1.37762  -2.00743   2.44366 
 H                     3.71273  -2.89841   2.61799 
 H                     5.65562  -0.75709   2.94217 
 H                     5.92305  -2.35211   3.1055 
 H                     3.56473  -4.35714   0.96743 
 H                     3.2292   -4.28522  -0.76117 
 H                     4.17597  -2.21447  -0.94165 
 H                    -0.15458  -3.11458  -3.07545 
 H                     0.15851  -1.38243  -3.27327 
 H                     1.91963  -3.00341  -2.17413 
 H                    -0.05903  -2.68773  -0.07736 
 H                     0.91649   3.17865  -1.52688 
 H                     0.18795   2.24427  -0.20988 
 H                     2.56995   1.38976  -1.93121 
 H                     1.22689  -0.29632   0.09499 
 H                     4.86486   2.49503  -2.08007 
 H                     4.69044   0.82692  -1.50705 
 H                     4.64468   2.6025    0.72128 
 H                     8.10753   1.39185  -1.35332 
 Se                   -0.5538    1.34708  -2.47776 
 C                    -2.01229   2.45846   1.4264 
 C                    -2.16812   3.54719   2.30335 
 C                    -1.47837   3.53085   3.51008 
 H                    -2.80475   4.38256   2.03147 
 C                    -0.54827   1.41727   2.88193 
 C                    -0.64894   2.44749   3.81238 
 H                    -1.58249   4.36024   4.20553 
 H                     0.10371   0.56274   3.04194 
 H                    -0.08146   2.40907   4.736 
 N                    -1.22323   1.40863   1.7184 
 

 GradGradGradGradGradGradGradGradGradGradGradGradGradGradGradGradGradGrad
 Berny optimization.
 Initialization pass.
                           ----------------------------
                           !    Initial Parameters    !
                           ! (Angstroms and Degrees)  !
 --------------------------                            --------------------------
 ! Name  Definition              Value          Derivative Info.                !
 --------------------------------------------------------------------------------
 ! R1    R(1,2)                  2.4702         estimate D2E/DX2                !
 ! R2    R(1,24)                 2.4265         estimate D2E/DX2                !
 ! R3    R(1,40)                 2.4362         estimate D2E/DX2                !
 ! R4    R(1,72)                 2.5039         estimate D2E/DX2                !
 ! R5    R(2,3)                  1.8659         estimate D2E/DX2                !
 ! R6    R(2,6)                  1.8546         estimate D2E/DX2                !
 ! R7    R(2,9)                  1.8603         estimate D2E/DX2                !
 ! R8    R(3,4)                  1.097          estimate D2E/DX2                !
 ! R9    R(3,5)                  1.0962         estimate D2E/DX2                !
 ! R10   R(3,12)                 1.535          estimate D2E/DX2                !
 ! R11   R(6,7)                  1.0977         estimate D2E/DX2                !
 ! R12   R(6,8)                  1.0943         estimate D2E/DX2                !
 ! R13   R(6,20)                 1.5327         estimate D2E/DX2                !
 ! R14   R(9,10)                 1.0942         estimate D2E/DX2                !
 ! R15   R(9,11)                 1.0977         estimate D2E/DX2                !
 ! R16   R(9,16)                 1.5351         estimate D2E/DX2                !
 ! R17   R(12,13)                1.0949         estimate D2E/DX2                !
 ! R18   R(12,14)                1.0915         estimate D2E/DX2                !
 ! R19   R(12,15)                1.0959         estimate D2E/DX2                !
 ! R20   R(16,17)                1.096          estimate D2E/DX2                !
 ! R21   R(16,18)                1.0948         estimate D2E/DX2                !
 ! R22   R(16,19)                1.0954         estimate D2E/DX2                !
 ! R23   R(20,21)                1.0927         estimate D2E/DX2                !
 ! R24   R(20,22)                1.0948         estimate D2E/DX2                !
 ! R25   R(20,23)                1.0945         estimate D2E/DX2                !
 ! R26   R(24,73)                1.7772         estimate D2E/DX2                !
 ! R27   R(25,26)                1.4668         estimate D2E/DX2                !
 ! R28   R(25,55)                1.0211         estimate D2E/DX2                !
 ! R29   R(25,56)                1.0193         estimate D2E/DX2                !
 ! R30   R(26,27)                1.5412         estimate D2E/DX2                !
 ! R31   R(26,29)                1.5467         estimate D2E/DX2                !
 ! R32   R(26,54)                1.0951         estimate D2E/DX2                !
 ! R33   R(27,28)                1.2298         estimate D2E/DX2                !
 ! R34   R(27,31)                1.3705         estimate D2E/DX2                !
 ! R35   R(29,30)                1.4241         estimate D2E/DX2                !
 ! R36   R(29,51)                1.0982         estimate D2E/DX2                !
 ! R37   R(29,52)                1.0931         estimate D2E/DX2                !
 ! R38   R(30,53)                0.9759         estimate D2E/DX2                !
 ! R39   R(31,32)                1.4548         estimate D2E/DX2                !
 ! R40   R(31,59)                1.0152         estimate D2E/DX2                !
 ! R41   R(32,33)                1.5376         estimate D2E/DX2                !
 ! R42   R(32,57)                1.0923         estimate D2E/DX2                !
 ! R43   R(32,58)                1.0954         estimate D2E/DX2                !
 ! R44   R(33,34)                1.2354         estimate D2E/DX2                !
 ! R45   R(33,35)                1.3489         estimate D2E/DX2                !
 ! R46   R(35,36)                1.443          estimate D2E/DX2                !
 ! R47   R(35,63)                1.02           estimate D2E/DX2                !
 ! R48   R(36,37)                1.5407         estimate D2E/DX2                !
 ! R49   R(36,39)                1.5513         estimate D2E/DX2                !
 ! R50   R(36,62)                1.0952         estimate D2E/DX2                !
 ! R51   R(37,38)                1.234          estimate D2E/DX2                !
 ! R52   R(37,41)                1.3543         estimate D2E/DX2                !
 ! R53   R(39,40)                1.8379         estimate D2E/DX2                !
 ! R54   R(39,60)                1.0959         estimate D2E/DX2                !
 ! R55   R(39,61)                1.0926         estimate D2E/DX2                !
 ! R56   R(41,42)                1.4557         estimate D2E/DX2                !
 ! R57   R(41,67)                1.0157         estimate D2E/DX2                !
 ! R58   R(42,43)                1.5439         estimate D2E/DX2                !
 ! R59   R(42,44)                1.5433         estimate D2E/DX2                !
 ! R60   R(42,66)                1.089          estimate D2E/DX2                !
 ! R61   R(43,64)                1.0939         estimate D2E/DX2                !
 ! R62   R(43,65)                1.0884         estimate D2E/DX2                !
 ! R63   R(43,72)                1.9888         estimate D2E/DX2                !
 ! R64   R(44,45)                1.2289         estimate D2E/DX2                !
 ! R65   R(44,46)                1.3627         estimate D2E/DX2                !
 ! R66   R(46,47)                1.4523         estimate D2E/DX2                !
 ! R67   R(46,70)                1.0168         estimate D2E/DX2                !
 ! R68   R(47,48)                1.5166         estimate D2E/DX2                !
 ! R69   R(47,68)                1.1002         estimate D2E/DX2                !
 ! R70   R(47,69)                1.0933         estimate D2E/DX2                !
 ! R71   R(48,49)                1.2111         estimate D2E/DX2                !
 ! R72   R(48,50)                1.3482         estimate D2E/DX2                !
 ! R73   R(50,71)                0.9758         estimate D2E/DX2                !
 ! R74   R(73,74)                1.4066         estimate D2E/DX2                !
 ! R75   R(73,82)                1.3454         estimate D2E/DX2                !
 ! R76   R(74,75)                1.39           estimate D2E/DX2                !
 ! R77   R(74,76)                1.0849         estimate D2E/DX2                !
 ! R78   R(75,78)                1.3975         estimate D2E/DX2                !
 ! R79   R(75,79)                1.0874         estimate D2E/DX2                !
 ! R80   R(77,78)                1.3918         estimate D2E/DX2                !
 ! R81   R(77,80)                1.0867         estimate D2E/DX2                !
 ! R82   R(77,82)                1.3452         estimate D2E/DX2                !
 ! R83   R(78,81)                1.0847         estimate D2E/DX2                !
 ! A1    A(2,1,24)              92.6897         estimate D2E/DX2                !
 ! A2    A(2,1,40)              87.3103         estimate D2E/DX2                !
 ! A3    A(24,1,72)             88.0636         estimate D2E/DX2                !
 ! A4    A(40,1,72)             91.9364         estimate D2E/DX2                !
 ! A5    A(1,2,3)              116.1328         estimate D2E/DX2                !
 ! A6    A(1,2,6)              113.1414         estimate D2E/DX2                !
 ! A7    A(1,2,9)              111.5564         estimate D2E/DX2                !
 ! A8    A(3,2,6)              105.158          estimate D2E/DX2                !
 ! A9    A(3,2,9)              102.9501         estimate D2E/DX2                !
 ! A10   A(6,2,9)              106.9966         estimate D2E/DX2                !
 ! A11   A(2,3,4)              106.5067         estimate D2E/DX2                !
 ! A12   A(2,3,5)              106.2093         estimate D2E/DX2                !
 ! A13   A(2,3,12)             116.8169         estimate D2E/DX2                !
 ! A14   A(4,3,5)              107.062          estimate D2E/DX2                !
 ! A15   A(4,3,12)             109.7087         estimate D2E/DX2                !
 ! A16   A(5,3,12)             110.0546         estimate D2E/DX2                !
 ! A17   A(2,6,7)              107.5712         estimate D2E/DX2                !
 ! A18   A(2,6,8)              106.1568         estimate D2E/DX2                !
 ! A19   A(2,6,20)             114.8641         estimate D2E/DX2                !
 ! A20   A(7,6,8)              107.1506         estimate D2E/DX2                !
 ! A21   A(7,6,20)             111.1849         estimate D2E/DX2                !
 ! A22   A(8,6,20)             109.5288         estimate D2E/DX2                !
 ! A23   A(2,9,10)             107.0308         estimate D2E/DX2                !
 ! A24   A(2,9,11)             105.5514         estimate D2E/DX2                !
 ! A25   A(2,9,16)             116.96           estimate D2E/DX2                !
 ! A26   A(10,9,11)            105.837          estimate D2E/DX2                !
 ! A27   A(10,9,16)            110.1416         estimate D2E/DX2                !
 ! A28   A(11,9,16)            110.6546         estimate D2E/DX2                !
 ! A29   A(3,12,13)            111.9075         estimate D2E/DX2                !
 ! A30   A(3,12,14)            111.5259         estimate D2E/DX2                !
 ! A31   A(3,12,15)            109.0788         estimate D2E/DX2                !
 ! A32   A(13,12,14)           108.5814         estimate D2E/DX2                !
 ! A33   A(13,12,15)           107.45           estimate D2E/DX2                !
 ! A34   A(14,12,15)           108.146          estimate D2E/DX2                !
 ! A35   A(9,16,17)            109.3386         estimate D2E/DX2                !
 ! A36   A(9,16,18)            111.8236         estimate D2E/DX2                !
 ! A37   A(9,16,19)            112.6926         estimate D2E/DX2                !
 ! A38   A(17,16,18)           107.4556         estimate D2E/DX2                !
 ! A39   A(17,16,19)           107.3511         estimate D2E/DX2                !
 ! A40   A(18,16,19)           107.9505         estimate D2E/DX2                !
 ! A41   A(6,20,21)            110.4489         estimate D2E/DX2                !
 ! A42   A(6,20,22)            109.8796         estimate D2E/DX2                !
 ! A43   A(6,20,23)            112.5284         estimate D2E/DX2                !
 ! A44   A(21,20,22)           107.8029         estimate D2E/DX2                !
 ! A45   A(21,20,23)           108.4186         estimate D2E/DX2                !
 ! A46   A(22,20,23)           107.6073         estimate D2E/DX2                !
 ! A47   A(1,24,73)             99.2497         estimate D2E/DX2                !
 ! A48   A(26,25,55)           107.1639         estimate D2E/DX2                !
 ! A49   A(26,25,56)           109.6892         estimate D2E/DX2                !
 ! A50   A(55,25,56)           105.6258         estimate D2E/DX2                !
 ! A51   A(25,26,27)           110.7281         estimate D2E/DX2                !
 ! A52   A(25,26,29)           107.1677         estimate D2E/DX2                !
 ! A53   A(25,26,54)           108.2762         estimate D2E/DX2                !
 ! A54   A(27,26,29)           110.7435         estimate D2E/DX2                !
 ! A55   A(27,26,54)           111.5733         estimate D2E/DX2                !
 ! A56   A(29,26,54)           108.1968         estimate D2E/DX2                !
 ! A57   A(26,27,28)           119.4912         estimate D2E/DX2                !
 ! A58   A(26,27,31)           120.3955         estimate D2E/DX2                !
 ! A59   A(28,27,31)           120.0795         estimate D2E/DX2                !
 ! A60   A(26,29,30)           114.2803         estimate D2E/DX2                !
 ! A61   A(26,29,51)           106.9017         estimate D2E/DX2                !
 ! A62   A(26,29,52)           109.6806         estimate D2E/DX2                !
 ! A63   A(30,29,51)           111.5413         estimate D2E/DX2                !
 ! A64   A(30,29,52)           105.7319         estimate D2E/DX2                !
 ! A65   A(51,29,52)           108.6084         estimate D2E/DX2                !
 ! A66   A(29,30,53)           108.644          estimate D2E/DX2                !
 ! A67   A(27,31,32)           128.2684         estimate D2E/DX2                !
 ! A68   A(27,31,59)           113.2333         estimate D2E/DX2                !
 ! A69   A(32,31,59)           117.9488         estimate D2E/DX2                !
 ! A70   A(31,32,33)           114.4358         estimate D2E/DX2                !
 ! A71   A(31,32,57)           111.5085         estimate D2E/DX2                !
 ! A72   A(31,32,58)           107.1731         estimate D2E/DX2                !
 ! A73   A(33,32,57)           105.9132         estimate D2E/DX2                !
 ! A74   A(33,32,58)           110.2963         estimate D2E/DX2                !
 ! A75   A(57,32,58)           107.3309         estimate D2E/DX2                !
 ! A76   A(32,33,34)           120.0588         estimate D2E/DX2                !
 ! A77   A(32,33,35)           118.4235         estimate D2E/DX2                !
 ! A78   A(34,33,35)           121.5094         estimate D2E/DX2                !
 ! A79   A(33,35,36)           129.0851         estimate D2E/DX2                !
 ! A80   A(33,35,63)           115.8609         estimate D2E/DX2                !
 ! A81   A(36,35,63)           115.0538         estimate D2E/DX2                !
 ! A82   A(35,36,37)           117.0424         estimate D2E/DX2                !
 ! A83   A(35,36,39)           110.3669         estimate D2E/DX2                !
 ! A84   A(35,36,62)           109.9364         estimate D2E/DX2                !
 ! A85   A(37,36,39)           108.6183         estimate D2E/DX2                !
 ! A86   A(37,36,62)           103.992          estimate D2E/DX2                !
 ! A87   A(39,36,62)           106.2073         estimate D2E/DX2                !
 ! A88   A(36,37,38)           117.8443         estimate D2E/DX2                !
 ! A89   A(36,37,41)           117.8788         estimate D2E/DX2                !
 ! A90   A(38,37,41)           124.0948         estimate D2E/DX2                !
 ! A91   A(36,39,40)           119.656          estimate D2E/DX2                !
 ! A92   A(36,39,60)           108.2533         estimate D2E/DX2                !
 ! A93   A(36,39,61)           108.4856         estimate D2E/DX2                !
 ! A94   A(40,39,60)           101.5777         estimate D2E/DX2                !
 ! A95   A(40,39,61)           110.1256         estimate D2E/DX2                !
 ! A96   A(60,39,61)           108.0662         estimate D2E/DX2                !
 ! A97   A(1,40,39)            117.5217         estimate D2E/DX2                !
 ! A98   A(37,41,42)           119.9109         estimate D2E/DX2                !
 ! A99   A(37,41,67)           121.0627         estimate D2E/DX2                !
 ! A100  A(42,41,67)           118.5912         estimate D2E/DX2                !
 ! A101  A(41,42,43)           111.4228         estimate D2E/DX2                !
 ! A102  A(41,42,44)           109.3824         estimate D2E/DX2                !
 ! A103  A(41,42,66)           105.4765         estimate D2E/DX2                !
 ! A104  A(43,42,44)           109.77           estimate D2E/DX2                !
 ! A105  A(43,42,66)           109.5214         estimate D2E/DX2                !
 ! A106  A(44,42,66)           111.2107         estimate D2E/DX2                !
 ! A107  A(42,43,64)           110.2982         estimate D2E/DX2                !
 ! A108  A(42,43,65)           109.6935         estimate D2E/DX2                !
 ! A109  A(42,43,72)           112.9416         estimate D2E/DX2                !
 ! A110  A(64,43,65)           108.5371         estimate D2E/DX2                !
 ! A111  A(64,43,72)           106.9498         estimate D2E/DX2                !
 ! A112  A(65,43,72)           108.2873         estimate D2E/DX2                !
 ! A113  A(42,44,45)           120.8027         estimate D2E/DX2                !
 ! A114  A(42,44,46)           117.2098         estimate D2E/DX2                !
 ! A115  A(45,44,46)           121.958          estimate D2E/DX2                !
 ! A116  A(44,46,47)           126.9813         estimate D2E/DX2                !
 ! A117  A(44,46,70)           114.326          estimate D2E/DX2                !
 ! A118  A(47,46,70)           113.9865         estimate D2E/DX2                !
 ! A119  A(46,47,48)           108.7196         estimate D2E/DX2                !
 ! A120  A(46,47,68)           112.3275         estimate D2E/DX2                !
 ! A121  A(46,47,69)           112.233          estimate D2E/DX2                !
 ! A122  A(48,47,68)           107.4903         estimate D2E/DX2                !
 ! A123  A(48,47,69)           108.0759         estimate D2E/DX2                !
 ! A124  A(68,47,69)           107.8062         estimate D2E/DX2                !
 ! A125  A(47,48,49)           125.2697         estimate D2E/DX2                !
 ! A126  A(47,48,50)           111.2083         estimate D2E/DX2                !
 ! A127  A(49,48,50)           123.5042         estimate D2E/DX2                !
 ! A128  A(48,50,71)           106.2812         estimate D2E/DX2                !
 ! A129  A(1,72,43)            101.2556         estimate D2E/DX2                !
 ! A130  A(24,73,74)           119.2363         estimate D2E/DX2                !
 ! A131  A(24,73,82)           118.4089         estimate D2E/DX2                !
 ! A132  A(74,73,82)           122.2509         estimate D2E/DX2                !
 ! A133  A(73,74,75)           118.4993         estimate D2E/DX2                !
 ! A134  A(73,74,76)           120.3137         estimate D2E/DX2                !
 ! A135  A(75,74,76)           121.1829         estimate D2E/DX2                !
 ! A136  A(74,75,78)           119.4326         estimate D2E/DX2                !
 ! A137  A(74,75,79)           119.9171         estimate D2E/DX2                !
 ! A138  A(78,75,79)           120.6491         estimate D2E/DX2                !
 ! A139  A(78,77,80)           121.8038         estimate D2E/DX2                !
 ! A140  A(78,77,82)           123.1407         estimate D2E/DX2                !
 ! A141  A(80,77,82)           115.047          estimate D2E/DX2                !
 ! A142  A(75,78,77)           118.1725         estimate D2E/DX2                !
 ! A143  A(75,78,81)           121.4766         estimate D2E/DX2                !
 ! A144  A(77,78,81)           120.3423         estimate D2E/DX2                !
 ! A145  A(73,82,77)           118.4907         estimate D2E/DX2                !
 ! A146  L(2,1,72,40,-1)       179.2466         estimate D2E/DX2                !
 ! A147  L(24,1,40,72,-1)      180.0            estimate D2E/DX2                !
 ! A148  L(2,1,72,40,-2)       176.0415         estimate D2E/DX2                !
 ! A149  L(24,1,40,72,-2)      180.0            estimate D2E/DX2                !
 ! D1    D(24,1,2,3)            29.282          estimate D2E/DX2                !
 ! D2    D(24,1,2,6)           -92.482          estimate D2E/DX2                !
 ! D3    D(24,1,2,9)           146.8114         estimate D2E/DX2                !
 ! D4    D(40,1,2,3)          -150.718          estimate D2E/DX2                !
 ! D5    D(40,1,2,6)            87.518          estimate D2E/DX2                !
 ! D6    D(40,1,2,9)           -33.1886         estimate D2E/DX2                !
 ! D7    D(3,2,72,43)           93.817          estimate D2E/DX2                !
 ! D8    D(6,2,72,43)          -29.082          estimate D2E/DX2                !
 ! D9    D(9,2,72,43)         -150.1337         estimate D2E/DX2                !
 ! D10   D(2,1,24,73)           78.3584         estimate D2E/DX2                !
 ! D11   D(72,1,24,73)        -105.6001         estimate D2E/DX2                !
 ! D12   D(73,24,40,39)        -84.3202         estimate D2E/DX2                !
 ! D13   D(2,1,40,39)         -162.6786         estimate D2E/DX2                !
 ! D14   D(72,1,40,39)          21.28           estimate D2E/DX2                !
 ! D15   D(24,1,72,43)          63.5655         estimate D2E/DX2                !
 ! D16   D(40,1,72,43)        -116.4344         estimate D2E/DX2                !
 ! D17   D(1,2,3,4)            146.0031         estimate D2E/DX2                !
 ! D18   D(1,2,3,5)             32.1223         estimate D2E/DX2                !
 ! D19   D(1,2,3,12)           -91.0458         estimate D2E/DX2                !
 ! D20   D(6,2,3,4)            -88.0922         estimate D2E/DX2                !
 ! D21   D(6,2,3,5)            158.027          estimate D2E/DX2                !
 ! D22   D(6,2,3,12)            34.8589         estimate D2E/DX2                !
 ! D23   D(9,2,3,4)             23.8118         estimate D2E/DX2                !
 ! D24   D(9,2,3,5)            -90.069          estimate D2E/DX2                !
 ! D25   D(9,2,3,12)           146.7629         estimate D2E/DX2                !
 ! D26   D(1,2,6,7)            179.9513         estimate D2E/DX2                !
 ! D27   D(1,2,6,8)             65.509          estimate D2E/DX2                !
 ! D28   D(1,2,6,20)           -55.6784         estimate D2E/DX2                !
 ! D29   D(3,2,6,7)             52.2138         estimate D2E/DX2                !
 ! D30   D(3,2,6,8)            -62.2284         estimate D2E/DX2                !
 ! D31   D(3,2,6,20)           176.5842         estimate D2E/DX2                !
 ! D32   D(9,2,6,7)            -56.7876         estimate D2E/DX2                !
 ! D33   D(9,2,6,8)           -171.2299         estimate D2E/DX2                !
 ! D34   D(9,2,6,20)            67.5828         estimate D2E/DX2                !
 ! D35   D(1,2,9,10)            43.6983         estimate D2E/DX2                !
 ! D36   D(1,2,9,11)           -68.729          estimate D2E/DX2                !
 ! D37   D(1,2,9,16)           167.7439         estimate D2E/DX2                !
 ! D38   D(3,2,9,10)           168.9225         estimate D2E/DX2                !
 ! D39   D(3,2,9,11)            56.4953         estimate D2E/DX2                !
 ! D40   D(3,2,9,16)           -67.0319         estimate D2E/DX2                !
 ! D41   D(6,2,9,10)           -80.5382         estimate D2E/DX2                !
 ! D42   D(6,2,9,11)           167.0345         estimate D2E/DX2                !
 ! D43   D(6,2,9,16)            43.5074         estimate D2E/DX2                !
 ! D44   D(2,3,12,13)          -61.9976         estimate D2E/DX2                !
 ! D45   D(2,3,12,14)           59.861          estimate D2E/DX2                !
 ! D46   D(2,3,12,15)          179.2457         estimate D2E/DX2                !
 ! D47   D(4,3,12,13)           59.2851         estimate D2E/DX2                !
 ! D48   D(4,3,12,14)         -178.8562         estimate D2E/DX2                !
 ! D49   D(4,3,12,15)          -59.4715         estimate D2E/DX2                !
 ! D50   D(5,3,12,13)          176.837          estimate D2E/DX2                !
 ! D51   D(5,3,12,14)          -61.3044         estimate D2E/DX2                !
 ! D52   D(5,3,12,15)           58.0803         estimate D2E/DX2                !
 ! D53   D(2,6,20,21)           64.7652         estimate D2E/DX2                !
 ! D54   D(2,6,20,22)         -176.4311         estimate D2E/DX2                !
 ! D55   D(2,6,20,23)          -56.5488         estimate D2E/DX2                !
 ! D56   D(7,6,20,21)         -172.792          estimate D2E/DX2                !
 ! D57   D(7,6,20,22)          -53.9883         estimate D2E/DX2                !
 ! D58   D(7,6,20,23)           65.894          estimate D2E/DX2                !
 ! D59   D(8,6,20,21)          -54.5611         estimate D2E/DX2                !
 ! D60   D(8,6,20,22)           64.2426         estimate D2E/DX2                !
 ! D61   D(8,6,20,23)         -175.8751         estimate D2E/DX2                !
 ! D62   D(2,9,16,17)          177.8072         estimate D2E/DX2                !
 ! D63   D(2,9,16,18)          -63.3124         estimate D2E/DX2                !
 ! D64   D(2,9,16,19)           58.5106         estimate D2E/DX2                !
 ! D65   D(10,9,16,17)         -59.7432         estimate D2E/DX2                !
 ! D66   D(10,9,16,18)          59.1373         estimate D2E/DX2                !
 ! D67   D(10,9,16,19)        -179.0398         estimate D2E/DX2                !
 ! D68   D(11,9,16,17)          56.9303         estimate D2E/DX2                !
 ! D69   D(11,9,16,18)         175.8107         estimate D2E/DX2                !
 ! D70   D(11,9,16,19)         -62.3663         estimate D2E/DX2                !
 ! D71   D(1,24,73,74)        -175.567          estimate D2E/DX2                !
 ! D72   D(1,24,73,82)           8.0547         estimate D2E/DX2                !
 ! D73   D(55,25,26,27)         43.9561         estimate D2E/DX2                !
 ! D74   D(55,25,26,29)        -76.9256         estimate D2E/DX2                !
 ! D75   D(55,25,26,54)        166.572          estimate D2E/DX2                !
 ! D76   D(56,25,26,27)        -70.2448         estimate D2E/DX2                !
 ! D77   D(56,25,26,29)        168.8735         estimate D2E/DX2                !
 ! D78   D(56,25,26,54)         52.3711         estimate D2E/DX2                !
 ! D79   D(25,26,27,28)        -44.6533         estimate D2E/DX2                !
 ! D80   D(25,26,27,31)        133.2346         estimate D2E/DX2                !
 ! D81   D(29,26,27,28)         74.0843         estimate D2E/DX2                !
 ! D82   D(29,26,27,31)       -108.0277         estimate D2E/DX2                !
 ! D83   D(54,26,27,28)       -165.3296         estimate D2E/DX2                !
 ! D84   D(54,26,27,31)         12.5583         estimate D2E/DX2                !
 ! D85   D(25,26,29,30)       -176.0112         estimate D2E/DX2                !
 ! D86   D(25,26,29,51)        -52.0897         estimate D2E/DX2                !
 ! D87   D(25,26,29,52)         65.483          estimate D2E/DX2                !
 ! D88   D(27,26,29,30)         63.1168         estimate D2E/DX2                !
 ! D89   D(27,26,29,51)       -172.9617         estimate D2E/DX2                !
 ! D90   D(27,26,29,52)        -55.3889         estimate D2E/DX2                !
 ! D91   D(54,26,29,30)        -59.4564         estimate D2E/DX2                !
 ! D92   D(54,26,29,51)         64.4652         estimate D2E/DX2                !
 ! D93   D(54,26,29,52)       -177.9621         estimate D2E/DX2                !
 ! D94   D(26,27,31,32)          5.2712         estimate D2E/DX2                !
 ! D95   D(26,27,31,59)        176.4925         estimate D2E/DX2                !
 ! D96   D(28,27,31,32)       -176.8533         estimate D2E/DX2                !
 ! D97   D(28,27,31,59)         -5.6319         estimate D2E/DX2                !
 ! D98   D(26,29,30,53)         59.0705         estimate D2E/DX2                !
 ! D99   D(51,29,30,53)        -62.3264         estimate D2E/DX2                !
 ! D100  D(52,29,30,53)        179.7947         estimate D2E/DX2                !
 ! D101  D(27,31,32,33)         68.2829         estimate D2E/DX2                !
 ! D102  D(27,31,32,57)        -51.8997         estimate D2E/DX2                !
 ! D103  D(27,31,32,58)       -169.0878         estimate D2E/DX2                !
 ! D104  D(59,31,32,33)       -102.5823         estimate D2E/DX2                !
 ! D105  D(59,31,32,57)        137.2351         estimate D2E/DX2                !
 ! D106  D(59,31,32,58)         20.047          estimate D2E/DX2                !
 ! D107  D(31,32,33,34)       -114.4429         estimate D2E/DX2                !
 ! D108  D(31,32,33,35)         64.5258         estimate D2E/DX2                !
 ! D109  D(57,32,33,34)          8.8078         estimate D2E/DX2                !
 ! D110  D(57,32,33,35)       -172.2235         estimate D2E/DX2                !
 ! D111  D(58,32,33,34)        124.6382         estimate D2E/DX2                !
 ! D112  D(58,32,33,35)        -56.3931         estimate D2E/DX2                !
 ! D113  D(32,33,35,36)         -1.3711         estimate D2E/DX2                !
 ! D114  D(32,33,35,63)        178.7896         estimate D2E/DX2                !
 ! D115  D(34,33,35,36)        177.582          estimate D2E/DX2                !
 ! D116  D(34,33,35,63)         -2.2574         estimate D2E/DX2                !
 ! D117  D(33,35,36,37)        -77.4264         estimate D2E/DX2                !
 ! D118  D(33,35,36,39)        157.6937         estimate D2E/DX2                !
 ! D119  D(33,35,36,62)         40.8627         estimate D2E/DX2                !
 ! D120  D(63,35,36,37)        102.414          estimate D2E/DX2                !
 ! D121  D(63,35,36,39)        -22.4658         estimate D2E/DX2                !
 ! D122  D(63,35,36,62)       -139.2968         estimate D2E/DX2                !
 ! D123  D(35,36,37,38)        150.0293         estimate D2E/DX2                !
 ! D124  D(35,36,37,41)        -34.6717         estimate D2E/DX2                !
 ! D125  D(39,36,37,38)        -84.2172         estimate D2E/DX2                !
 ! D126  D(39,36,37,41)         91.0819         estimate D2E/DX2                !
 ! D127  D(62,36,37,38)         28.5806         estimate D2E/DX2                !
 ! D128  D(62,36,37,41)       -156.1203         estimate D2E/DX2                !
 ! D129  D(35,36,39,40)         26.0125         estimate D2E/DX2                !
 ! D130  D(35,36,39,60)        -89.5168         estimate D2E/DX2                !
 ! D131  D(35,36,39,61)        153.4456         estimate D2E/DX2                !
 ! D132  D(37,36,39,40)       -103.5425         estimate D2E/DX2                !
 ! D133  D(37,36,39,60)        140.9283         estimate D2E/DX2                !
 ! D134  D(37,36,39,61)         23.8906         estimate D2E/DX2                !
 ! D135  D(62,36,39,40)        145.1348         estimate D2E/DX2                !
 ! D136  D(62,36,39,60)         29.6055         estimate D2E/DX2                !
 ! D137  D(62,36,39,61)        -87.4321         estimate D2E/DX2                !
 ! D138  D(36,37,41,42)       -156.3755         estimate D2E/DX2                !
 ! D139  D(36,37,41,67)         15.9471         estimate D2E/DX2                !
 ! D140  D(38,37,41,42)         18.6042         estimate D2E/DX2                !
 ! D141  D(38,37,41,67)       -169.0731         estimate D2E/DX2                !
 ! D142  D(36,39,40,1)          79.3955         estimate D2E/DX2                !
 ! D143  D(60,39,40,1)        -161.6207         estimate D2E/DX2                !
 ! D144  D(61,39,40,1)         -47.2766         estimate D2E/DX2                !
 ! D145  D(37,41,42,43)        110.1122         estimate D2E/DX2                !
 ! D146  D(37,41,42,44)       -128.3397         estimate D2E/DX2                !
 ! D147  D(37,41,42,66)         -8.6451         estimate D2E/DX2                !
 ! D148  D(67,41,42,43)        -62.3991         estimate D2E/DX2                !
 ! D149  D(67,41,42,44)         59.1491         estimate D2E/DX2                !
 ! D150  D(67,41,42,66)        178.8436         estimate D2E/DX2                !
 ! D151  D(41,42,43,64)       -170.2354         estimate D2E/DX2                !
 ! D152  D(41,42,43,65)         70.2652         estimate D2E/DX2                !
 ! D153  D(41,42,43,72)        -50.6254         estimate D2E/DX2                !
 ! D154  D(44,42,43,64)         68.442          estimate D2E/DX2                !
 ! D155  D(44,42,43,65)        -51.0574         estimate D2E/DX2                !
 ! D156  D(44,42,43,72)       -171.948          estimate D2E/DX2                !
 ! D157  D(66,42,43,64)        -53.9249         estimate D2E/DX2                !
 ! D158  D(66,42,43,65)       -173.4243         estimate D2E/DX2                !
 ! D159  D(66,42,43,72)         65.685          estimate D2E/DX2                !
 ! D160  D(41,42,44,45)        -70.1632         estimate D2E/DX2                !
 ! D161  D(41,42,44,46)        111.7733         estimate D2E/DX2                !
 ! D162  D(43,42,44,45)         52.3772         estimate D2E/DX2                !
 ! D163  D(43,42,44,46)       -125.6863         estimate D2E/DX2                !
 ! D164  D(66,42,44,45)        173.7351         estimate D2E/DX2                !
 ! D165  D(66,42,44,46)         -4.3284         estimate D2E/DX2                !
 ! D166  D(42,43,72,1)         102.9818         estimate D2E/DX2                !
 ! D167  D(64,43,72,1)        -135.4972         estimate D2E/DX2                !
 ! D168  D(65,43,72,1)         -18.7052         estimate D2E/DX2                !
 ! D169  D(42,44,46,47)        -20.6574         estimate D2E/DX2                !
 ! D170  D(42,44,46,70)       -174.6716         estimate D2E/DX2                !
 ! D171  D(45,44,46,47)        161.3031         estimate D2E/DX2                !
 ! D172  D(45,44,46,70)          7.2889         estimate D2E/DX2                !
 ! D173  D(44,46,47,48)       -150.0894         estimate D2E/DX2                !
 ! D174  D(44,46,47,68)         91.0802         estimate D2E/DX2                !
 ! D175  D(44,46,47,69)        -30.5887         estimate D2E/DX2                !
 ! D176  D(70,46,47,48)          3.9988         estimate D2E/DX2                !
 ! D177  D(70,46,47,68)       -114.8315         estimate D2E/DX2                !
 ! D178  D(70,46,47,69)        123.4995         estimate D2E/DX2                !
 ! D179  D(46,47,48,49)         -5.7822         estimate D2E/DX2                !
 ! D180  D(46,47,48,50)        175.7103         estimate D2E/DX2                !
 ! D181  D(68,47,48,49)        116.0439         estimate D2E/DX2                !
 ! D182  D(68,47,48,50)        -62.4636         estimate D2E/DX2                !
 ! D183  D(69,47,48,49)       -127.8449         estimate D2E/DX2                !
 ! D184  D(69,47,48,50)         53.6476         estimate D2E/DX2                !
 ! D185  D(47,48,50,71)        179.4713         estimate D2E/DX2                !
 ! D186  D(49,48,50,71)          0.9327         estimate D2E/DX2                !
 ! D187  D(24,73,74,75)       -176.145          estimate D2E/DX2                !
 ! D188  D(24,73,74,76)          3.1306         estimate D2E/DX2                !
 ! D189  D(82,73,74,75)          0.0881         estimate D2E/DX2                !
 ! D190  D(82,73,74,76)        179.3638         estimate D2E/DX2                !
 ! D191  D(24,73,82,77)        175.2593         estimate D2E/DX2                !
 ! D192  D(74,73,82,77)         -1.0037         estimate D2E/DX2                !
 ! D193  D(73,74,75,78)          0.447          estimate D2E/DX2                !
 ! D194  D(73,74,75,79)       -179.9603         estimate D2E/DX2                !
 ! D195  D(76,74,75,78)       -178.822          estimate D2E/DX2                !
 ! D196  D(76,74,75,79)          0.7707         estimate D2E/DX2                !
 ! D197  D(74,75,78,77)         -0.0706         estimate D2E/DX2                !
 ! D198  D(74,75,78,81)        178.8666         estimate D2E/DX2                !
 ! D199  D(79,75,78,77)       -179.6603         estimate D2E/DX2                !
 ! D200  D(79,75,78,81)         -0.7231         estimate D2E/DX2                !
 ! D201  D(80,77,78,75)        177.992          estimate D2E/DX2                !
 ! D202  D(80,77,78,81)         -0.9577         estimate D2E/DX2                !
 ! D203  D(82,77,78,75)         -0.8947         estimate D2E/DX2                !
 ! D204  D(82,77,78,81)       -179.8444         estimate D2E/DX2                !
 ! D205  D(78,77,82,73)          1.4242         estimate D2E/DX2                !
 ! D206  D(80,77,82,73)       -177.5315         estimate D2E/DX2                !
 --------------------------------------------------------------------------------
 Trust Radius=3.00D-01 FncErr=1.00D-07 GrdErr=1.00D-06
 Number of steps in this run=    448 maximum allowed number of steps=    492.
 GradGradGradGradGradGradGradGradGradGradGradGradGradGradGradGradGradGrad

 Stoichiometry    C24H40AuN6O7PS2Se
 Framework group  C1[X(C24H40AuN6O7PS2Se)]
 Deg. of freedom   240
 Full point group                 C1      NOp   1
 Largest Abelian subgroup         C1      NOp   1
 Largest concise Abelian subgroup C1      NOp   1
                         Standard orientation:                         
 ---------------------------------------------------------------------
 Center     Atomic      Atomic             Coordinates (Angstroms)
 Number     Number       Type             X           Y           Z
 ---------------------------------------------------------------------
      1         79           0        2.228949   -0.282738   -0.951066
      2         15           0        3.987674    0.781777    0.418521
      3          6           0        5.498369   -0.256191    0.767637
      4          1           0        6.350754    0.433778    0.796424
      5          1           0        5.635811   -0.900809   -0.108244
      6          6           0        3.382195    1.332112    2.082912
      7          1           0        4.230512    1.787373    2.610254
      8          1           0        3.115757    0.420592    2.626706
      9          6           0        4.697329    2.280408   -0.424793
     10          1           0        3.855642    2.844000   -0.838454
     11          1           0        5.253986    1.895734   -1.289160
     12          6           0        5.475382   -1.104198    2.046878
     13          1           0        5.395007   -0.484829    2.946205
     14          1           0        4.648567   -1.816711    2.040244
     15          1           0        6.411854   -1.668745    2.119280
     16          6           0        5.584393    3.201949    0.424038
     17          1           0        5.964533    4.017323   -0.202032
     18          1           0        5.027314    3.654856    1.250574
     19          1           0        6.451572    2.682518    0.845972
     20          6           0        2.177789    2.279406    2.049639
     21          1           0        1.303126    1.770535    1.637269
     22          1           0        1.929339    2.601564    3.066063
     23          1           0        2.367492    3.178176    1.454529
     24         16           0        2.802276   -2.505649   -0.164909
     25          7           0       -5.230188    1.623887    3.274402
     26          6           0       -4.044086    1.868798    2.446986
     27          6           0       -4.354597    1.613117    0.959196
     28          8           0       -4.988078    0.609590    0.636724
     29          6           0       -2.933935    0.914826    2.946712
     30          8           0       -1.676993    1.089662    2.300558
     31          7           0       -3.967044    2.517000    0.004632
     32          6           0       -3.166412    3.719735    0.174857
     33          6           0       -1.696450    3.458561    0.542640
     34          8           0       -1.262310    3.810496    1.644368
     35          7           0       -0.913431    2.823542   -0.353573
     36          6           0       -1.257604    2.302645   -1.654478
     37          6           0       -2.024419    0.966957   -1.693729
     38          8           0       -2.796956    0.773375   -2.636274
     39          6           0        0.011785    2.171095   -2.536507
     40         16           0        1.653349    1.948985   -1.740339
     41          7           0       -1.735496    0.042783   -0.746797
     42          6           0       -2.005356   -1.365099   -1.000271
     43          6           0       -0.697786   -2.168507   -1.168493
     44          6           0       -2.829039   -1.947130    0.167894
     45          8           0       -2.322147   -2.110259    1.275414
     46          7           0       -4.117183   -2.305065   -0.095552
     47          6           0       -4.944224   -1.844060   -1.196693
     48          6           0       -6.394473   -1.852633   -0.752981
     49          8           0       -6.799722   -2.281971    0.304422
     50          8           0       -7.199559   -1.344395   -1.707500
     51          1           0       -2.852945    1.060067    4.032224
     52          1           0       -3.224604   -0.121133    2.754147
     53          1           0       -1.377616    2.007430    2.443661
     54          1           0       -3.712727    2.898413    2.617985
     55          1           0       -5.655619    0.757091    2.942173
     56          1           0       -5.923049    2.352110    3.105501
     57          1           0       -3.564733    4.357137    0.967430
     58          1           0       -3.229195    4.285222   -0.761172
     59          1           0       -4.175969    2.214467   -0.941651
     60          1           0        0.154578    3.114576   -3.075447
     61          1           0       -0.158505    1.382433   -3.273270
     62          1           0       -1.919627    3.003410   -2.174128
     63          1           0        0.059031    2.687732   -0.077361
     64          1           0       -0.916490   -3.178651   -1.526879
     65          1           0       -0.187952   -2.244274   -0.209876
     66          1           0       -2.569950   -1.389758   -1.931207
     67          1           0       -1.226887    0.296316    0.094987
     68          1           0       -4.864859   -2.495032   -2.080075
     69          1           0       -4.690439   -0.826917   -1.507048
     70          1           0       -4.644678   -2.602496    0.721278
     71          1           0       -8.107529   -1.391852   -1.353319
     72         34           0        0.553801   -1.347078   -2.477764
     73          6           0        2.012286   -2.458455    1.426400
     74          6           0        2.168121   -3.547186    2.303350
     75          6           0        1.478367   -3.530852    3.510081
     76          1           0        2.804754   -4.382564    2.031467
     77          6           0        0.548271   -1.417267    2.881930
     78          6           0        0.648939   -2.447492    3.812375
     79          1           0        1.582490   -4.360240    4.205530
     80          1           0       -0.103706   -0.562737    3.041943
     81          1           0        0.081461   -2.409067    4.736001
     82          7           0        1.223229   -1.408630    1.718403
 ---------------------------------------------------------------------
 Rotational constants (GHZ):      0.0908314      0.0437105      0.0419432
 General basis read from cards:  (5D, 7F)
 ======================================================================================================
                                       Pseudopotential Parameters
 ======================================================================================================
  Center     Atomic      Valence      Angular      Power
  Number     Number     Electrons     Momentum     of R      Exponent        Coefficient   SO-Coeffient
 ======================================================================================================
    1         79           19
                                      G and up 
                                                     1      622.6287956      -60.00000000    0.00000000
                                                     2      136.2843607     -555.52923120    0.00000000
                                                     2       33.1549781     -168.00197850    0.00000000
                                                     2        9.9894895      -63.03998750    0.00000000
                                                     2        3.0481312       -4.25166810    0.00000000
                                      S - G
                                                     0      194.7374304        3.00000000    0.00000000
                                                     1      351.5327447       38.60208800    0.00000000
                                                     2      122.3270402      864.83707270    0.00000000
                                                     2       32.0914617      374.99355200    0.00000000
                                                     2        5.2451812      289.79101000    0.00000000
                                                     2        4.4916223     -152.45327730    0.00000000
                                      P - G
                                                     0      420.6158801        2.00000000    0.00000000
                                                     1      109.4417815       73.88856250    0.00000000
                                                     2       34.1714280      326.67298720    0.00000000
                                                     2        5.9879750      126.58145910    0.00000000
                                      D - G
                                                     0      219.2666158        3.00000000    0.00000000
                                                     1      122.7297786       55.67931490    0.00000000
                                                     2       63.1063369      449.19873350    0.00000000
                                                     2       18.3684520      215.02690910    0.00000000
                                                     2        4.4972844       64.08409950    0.00000000
                                      F - G
                                                     0      108.5506037        4.00000000    0.00000000
                                                     1       56.4795527       51.80653350    0.00000000
                                                     2       29.2069159      231.21831130    0.00000000
                                                     2        9.5440543      119.00473860    0.00000000
                                                     2        2.8965118       15.34241880    0.00000000
    2         15
                                   No pseudopotential on this center.
    3          6
                                   No pseudopotential on this center.
    4          1
                                   No pseudopotential on this center.
    5          1
                                   No pseudopotential on this center.
    6          6
                                   No pseudopotential on this center.
    7          1
                                   No pseudopotential on this center.
    8          1
                                   No pseudopotential on this center.
    9          6
                                   No pseudopotential on this center.
   10          1
                                   No pseudopotential on this center.
   11          1
                                   No pseudopotential on this center.
   12          6
                                   No pseudopotential on this center.
   13          1
                                   No pseudopotential on this center.
   14          1
                                   No pseudopotential on this center.
   15          1
                                   No pseudopotential on this center.
   16          6
                                   No pseudopotential on this center.
   17          1
                                   No pseudopotential on this center.
   18          1
                                   No pseudopotential on this center.
   19          1
                                   No pseudopotential on this center.
   20          6
                                   No pseudopotential on this center.
   21          1
                                   No pseudopotential on this center.
   22          1
                                   No pseudopotential on this center.
   23          1
                                   No pseudopotential on this center.
   24         16
                                   No pseudopotential on this center.
   25          7
                                   No pseudopotential on this center.
   26          6
                                   No pseudopotential on this center.
   27          6
                                   No pseudopotential on this center.
   28          8
                                   No pseudopotential on this center.
   29          6
                                   No pseudopotential on this center.
   30          8
                                   No pseudopotential on this center.
   31          7
                                   No pseudopotential on this center.
   32          6
                                   No pseudopotential on this center.
   33          6
                                   No pseudopotential on this center.
   34          8
                                   No pseudopotential on this center.
   35          7
                                   No pseudopotential on this center.
   36          6
                                   No pseudopotential on this center.
   37          6
                                   No pseudopotential on this center.
   38          8
                                   No pseudopotential on this center.
   39          6
                                   No pseudopotential on this center.
   40         16
                                   No pseudopotential on this center.
   41          7
                                   No pseudopotential on this center.
   42          6
                                   No pseudopotential on this center.
   43          6
                                   No pseudopotential on this center.
   44          6
                                   No pseudopotential on this center.
   45          8
                                   No pseudopotential on this center.
   46          7
                                   No pseudopotential on this center.
   47          6
                                   No pseudopotential on this center.
   48          6
                                   No pseudopotential on this center.
   49          8
                                   No pseudopotential on this center.
   50          8
                                   No pseudopotential on this center.
   51          1
                                   No pseudopotential on this center.
   52          1
                                   No pseudopotential on this center.
   53          1
                                   No pseudopotential on this center.
   54          1
                                   No pseudopotential on this center.
   55          1
                                   No pseudopotential on this center.
   56          1
                                   No pseudopotential on this center.
   57          1
                                   No pseudopotential on this center.
   58          1
                                   No pseudopotential on this center.
   59          1
                                   No pseudopotential on this center.
   60          1
                                   No pseudopotential on this center.
   61          1
                                   No pseudopotential on this center.
   62          1
                                   No pseudopotential on this center.
   63          1
                                   No pseudopotential on this center.
   64          1
                                   No pseudopotential on this center.
   65          1
                                   No pseudopotential on this center.
   66          1
                                   No pseudopotential on this center.
   67          1
                                   No pseudopotential on this center.
   68          1
                                   No pseudopotential on this center.
   69          1
                                   No pseudopotential on this center.
   70          1
                                   No pseudopotential on this center.
   71          1
                                   No pseudopotential on this center.
   72         34
                                   No pseudopotential on this center.
   73          6
                                   No pseudopotential on this center.
   74          6
                                   No pseudopotential on this center.
   75          6
                                   No pseudopotential on this center.
   76          1
                                   No pseudopotential on this center.
   77          6
                                   No pseudopotential on this center.
   78          6
                                   No pseudopotential on this center.
   79          1
                                   No pseudopotential on this center.
   80          1
                                   No pseudopotential on this center.
   81          1
                                   No pseudopotential on this center.
   82          7
                                   No pseudopotential on this center.
 ======================================================================================================
 There are   770 symmetry adapted cartesian basis functions of A   symmetry.
 There are   722 symmetry adapted basis functions of A   symmetry.
   722 basis functions,  1483 primitive gaussians,   770 cartesian basis functions
   191 alpha electrons      191 beta electrons
       nuclear repulsion energy      7977.9562992812 Hartrees.
 NAtoms=   82 NActive=   82 NUniq=   82 SFac= 1.00D+00 NAtFMM=   60 NAOKFM=T Big=T
 Integral buffers will be    131072 words long.
 Raffenetti 2 integral format.
 Two-electron integral symmetry is turned on.
 One-electron integrals computed using PRISM.
   1 Symmetry operations used in ECPInt.
 ECPInt:  NShTT=   36315 NPrTT=  221058 LenC2=   28276 LenP2D=   87949.
 LDataN:  DoStor=T MaxTD1= 7 Len=  274
 NBasis=   722 RedAO= T EigKep=  8.70D-04  NBF=   722
 NBsUse=   722 1.00D-06 EigRej= -1.00D+00 NBFU=   722
 Defaulting to unpruned grid for atomic number  79.
 ExpMin= 2.79D-02 ExpMax= 5.61D+05 ExpMxC= 5.42D+03 IAcc=3 IRadAn=         5 AccDes= 0.00D+00
 Harris functional with IExCor=  402 and IRadAn=       5 diagonalized for initial guess.
 HarFok:  IExCor=  402 AccDes= 0.00D+00 IRadAn=         5 IDoV= 1 UseB2=F ITyADJ=14
 ICtDFT=  3500011 ScaDFX=  1.000000  1.000000  1.000000  1.000000
 Defaulting to unpruned grid for atomic number  79.
 Defaulting to unpruned grid for atomic number  79.
 Defaulting to unpruned grid for atomic number  79.
 Defaulting to unpruned grid for atomic number  79.
 Defaulting to unpruned grid for atomic number  79.
 Defaulting to unpruned grid for atomic number  79.
 Defaulting to unpruned grid for atomic number  79.
 Defaulting to unpruned grid for atomic number  79.
 FoFCou: FMM=F IPFlag=           0 FMFlag=      100000 FMFlg1=        2001
         NFxFlg=           0 DoJE=T BraDBF=F KetDBF=T FulRan=T
         wScrn=  0.000000 ICntrl=     500 IOpCl=  0 I1Cent=   200000004 NGrid=           0
         NMat0=    1 NMatS0=      1 NMatT0=    0 NMatD0=    1 NMtDS0=    0 NMtDT0=    0
 Petite list used in FoFCou.
 Requested convergence on RMS density matrix=1.00D-08 within 128 cycles.
 Requested convergence on MAX density matrix=1.00D-06.
 Requested convergence on             energy=1.00D-06.
 No special actions if energy rises.
 Defaulting to unpruned grid for atomic number  79.
 Defaulting to unpruned grid for atomic number  79.
 Defaulting to unpruned grid for atomic number  79.
 Defaulting to unpruned grid for atomic number  79.
 Defaulting to unpruned grid for atomic number  79.
 Defaulting to unpruned grid for atomic number  79.
 Defaulting to unpruned grid for atomic number  79.
 Defaulting to unpruned grid for atomic number  79.
 EnCoef did     4 forward-backward iterations
 EnCoef did     2 forward-backward iterations
 SCF Done:  E(RB3LYP) =  -5465.93856532     A.U. after   18 cycles
            NFock= 18  Conv=0.53D-08     -V/T= 2.0182

 **********************************************************************

            Population analysis using the SCF density.

 **********************************************************************

 Orbital symmetries:
       Occupied  (A) (A) (A) (A) (A) (A) (A) (A) (A) (A) (A) (A)
                 (A) (A) (A) (A) (A) (A) (A) (A) (A) (A) (A) (A)
                 (A) (A) (A) (A) (A) (A) (A) (A) (A) (A) (A) (A)
                 (A) (A) (A) (A) (A) (A) (A) (A) (A) (A) (A) (A)
                 (A) (A) (A) (A) (A) (A) (A) (A) (A) (A) (A) (A)
                 (A) (A) (A) (A) (A) (A) (A) (A) (A) (A) (A) (A)
                 (A) (A) (A) (A) (A) (A) (A) (A) (A) (A) (A) (A)
                 (A) (A) (A) (A) (A) (A) (A) (A) (A) (A) (A) (A)
                 (A) (A) (A) (A) (A) (A) (A) (A) (A) (A) (A) (A)
                 (A) (A) (A) (A) (A) (A) (A) (A) (A) (A) (A) (A)
                 (A) (A) (A) (A) (A) (A) (A) (A) (A) (A) (A) (A)
                 (A) (A) (A) (A) (A) (A) (A) (A) (A) (A) (A) (A)
                 (A) (A) (A) (A) (A) (A) (A) (A) (A) (A) (A) (A)
                 (A) (A) (A) (A) (A) (A) (A) (A) (A) (A) (A) (A)
                 (A) (A) (A) (A) (A) (A) (A) (A) (A) (A) (A) (A)
                 (A) (A) (A) (A) (A) (A) (A) (A) (A) (A) (A)
       Virtual   (A) (A) (A) (A) (A) (A) (A) (A) (A) (A) (A) (A)
                 (A) (A) (A) (A) (A) (A) (A) (A) (A) (A) (A) (A)
                 (A) (A) (A) (A) (A) (A) (A) (A) (A) (A) (A) (A)
                 (A) (A) (A) (A) (A) (A) (A) (A) (A) (A) (A) (A)
                 (A) (A) (A) (A) (A) (A) (A) (A) (A) (A) (A) (A)
                 (A) (A) (A) (A) (A) (A) (A) (A) (A) (A) (A) (A)
                 (A) (A) (A) (A) (A) (A) (A) (A) (A) (A) (A) (A)
                 (A) (A) (A) (A) (A) (A) (A) (A) (A) (A) (A) (A)
                 (A) (A) (A) (A) (A) (A) (A) (A) (A) (A) (A) (A)
                 (A) (A) (A) (A) (A) (A) (A) (A) (A) (A) (A) (A)
                 (A) (A) (A) (A) (A) (A) (A) (A) (A) (A) (A) (A)
                 (A) (A) (A) (A) (A) (A) (A) (A) (A) (A) (A) (A)
                 (A) (A) (A) (A) (A) (A) (A) (A) (A) (A) (A) (A)
                 (A) (A) (A) (A) (A) (A) (A) (A) (A) (A) (A) (A)
                 (A) (A) (A) (A) (A) (A) (A) (A) (A) (A) (A) (A)
                 (A) (A) (A) (A) (A) (A) (A) (A) (A) (A) (A) (A)
                 (A) (A) (A) (A) (A) (A) (A) (A) (A) (A) (A) (A)
                 (A) (A) (A) (A) (A) (A) (A) (A) (A) (A) (A) (A)
                 (A) (A) (A) (A) (A) (A) (A) (A) (A) (A) (A) (A)
                 (A) (A) (A) (A) (A) (A) (A) (A) (A) (A) (A) (A)
                 (A) (A) (A) (A) (A) (A) (A) (A) (A) (A) (A) (A)
                 (A) (A) (A) (A) (A) (A) (A) (A) (A) (A) (A) (A)
                 (A) (A) (A) (A) (A) (A) (A) (A) (A) (A) (A) (A)
                 (A) (A) (A) (A) (A) (A) (A) (A) (A) (A) (A) (A)
                 (A) (A) (A) (A) (A) (A) (A) (A) (A) (A) (A) (A)
                 (A) (A) (A) (A) (A) (A) (A) (A) (A) (A) (A) (A)
                 (A) (A) (A) (A) (A) (A) (A) (A) (A) (A) (A) (A)
                 (A) (A) (A) (A) (A) (A) (A) (A) (A) (A) (A) (A)
                 (A) (A) (A) (A) (A) (A) (A) (A) (A) (A) (A) (A)
                 (A) (A) (A) (A) (A) (A) (A) (A) (A) (A) (A) (A)
                 (A) (A) (A) (A) (A) (A) (A) (A) (A) (A) (A) (A)
                 (A) (A) (A) (A) (A) (A) (A) (A) (A) (A) (A) (A)
                 (A) (A) (A) (A) (A) (A) (A) (A) (A) (A) (A) (A)
                 (A) (A) (A) (A) (A) (A) (A) (A) (A) (A) (A) (A)
                 (A) (A) (A) (A) (A) (A) (A) (A) (A) (A) (A) (A)
                 (A) (A) (A) (A) (A) (A) (A) (A) (A) (A) (A) (A)
                 (A) (A) (A) (A) (A) (A) (A) (A) (A) (A) (A) (A)
                 (A) (A) (A) (A) (A) (A) (A) (A) (A) (A) (A) (A)
                 (A) (A) (A) (A) (A) (A) (A) (A) (A) (A) (A) (A)
                 (A) (A) (A) (A) (A) (A) (A) (A) (A) (A) (A) (A)
                 (A) (A) (A) (A) (A) (A) (A) (A) (A) (A) (A) (A)
                 (A) (A) (A) (A) (A) (A) (A) (A) (A) (A) (A) (A)
                 (A) (A) (A) (A) (A) (A) (A) (A) (A) (A) (A) (A)
                 (A) (A) (A) (A) (A) (A) (A) (A) (A) (A) (A) (A)
                 (A) (A) (A)
 The electronic state is 1-A.
 Alpha  occ. eigenvalues -- -453.53484 -88.84791 -88.84362 -77.12634 -57.25409
 Alpha  occ. eigenvalues --  -52.02974 -52.02887 -52.02600 -19.19454 -19.14150
 Alpha  occ. eigenvalues --  -19.13637 -19.12630 -19.11548 -19.11173 -19.09986
 Alpha  occ. eigenvalues --  -14.36606 -14.36595 -14.34917 -14.34165 -14.32519
 Alpha  occ. eigenvalues --  -14.30708 -10.32282 -10.30091 -10.28551 -10.28318
 Alpha  occ. eigenvalues --  -10.27387 -10.24313 -10.24302 -10.24166 -10.22427
 Alpha  occ. eigenvalues --  -10.21994 -10.21544 -10.21495 -10.21454 -10.21217
 Alpha  occ. eigenvalues --  -10.21095 -10.21015 -10.20776 -10.20035 -10.19797
 Alpha  occ. eigenvalues --  -10.19222 -10.18918 -10.18785 -10.18615 -10.18058
 Alpha  occ. eigenvalues --   -7.92235  -7.91830  -7.60427  -6.60525  -5.88643
 Alpha  occ. eigenvalues --   -5.88243  -5.88217  -5.87874  -5.87741  -5.87321
 Alpha  occ. eigenvalues --   -5.73451  -5.73155  -5.72134  -4.76656  -4.76647
 Alpha  occ. eigenvalues --   -4.76480  -4.22315  -2.36166  -2.36054  -2.33837
 Alpha  occ. eigenvalues --   -2.09651  -2.09627  -2.08783  -2.08545  -2.08344
 Alpha  occ. eigenvalues --   -1.11057  -1.05026  -1.03696  -1.03267  -1.02275
 Alpha  occ. eigenvalues --   -1.01802  -1.01063  -0.94528  -0.93744  -0.92853
 Alpha  occ. eigenvalues --   -0.91835  -0.91205  -0.88429  -0.82104  -0.79598
 Alpha  occ. eigenvalues --   -0.79559  -0.77962  -0.77680  -0.77449  -0.76698
 Alpha  occ. eigenvalues --   -0.74444  -0.74204  -0.72148  -0.71239  -0.69239
 Alpha  occ. eigenvalues --   -0.68903  -0.67697  -0.64629  -0.64566  -0.63990
 Alpha  occ. eigenvalues --   -0.62443  -0.61880  -0.61808  -0.60879  -0.59548
 Alpha  occ. eigenvalues --   -0.59275  -0.58573  -0.57690  -0.56976  -0.55758
 Alpha  occ. eigenvalues --   -0.53551  -0.52281  -0.51409  -0.50586  -0.50424
 Alpha  occ. eigenvalues --   -0.49888  -0.49565  -0.49187  -0.48954  -0.48529
 Alpha  occ. eigenvalues --   -0.48294  -0.47895  -0.47764  -0.47360  -0.46381
 Alpha  occ. eigenvalues --   -0.46141  -0.45563  -0.45509  -0.45163  -0.44723
 Alpha  occ. eigenvalues --   -0.44050  -0.43992  -0.43824  -0.43588  -0.43474
 Alpha  occ. eigenvalues --   -0.43051  -0.42164  -0.41944  -0.41442  -0.41281
 Alpha  occ. eigenvalues --   -0.41008  -0.40981  -0.40676  -0.40623  -0.40237
 Alpha  occ. eigenvalues --   -0.40021  -0.39890  -0.39746  -0.39307  -0.39124
 Alpha  occ. eigenvalues --   -0.39086  -0.38969  -0.38659  -0.38014  -0.37867
 Alpha  occ. eigenvalues --   -0.37601  -0.37219  -0.37128  -0.37023  -0.36840
 Alpha  occ. eigenvalues --   -0.36425  -0.36115  -0.35818  -0.35704  -0.33947
 Alpha  occ. eigenvalues --   -0.33805  -0.33422  -0.32944  -0.32320  -0.32179
 Alpha  occ. eigenvalues --   -0.31022  -0.30501  -0.28790  -0.28594  -0.28395
 Alpha  occ. eigenvalues --   -0.27975  -0.27602  -0.27174  -0.26387  -0.26155
 Alpha  occ. eigenvalues --   -0.25445  -0.25289  -0.25082  -0.24964  -0.24339
 Alpha  occ. eigenvalues --   -0.24145  -0.23530  -0.23211  -0.22889  -0.20666
 Alpha  occ. eigenvalues --   -0.18970
 Alpha virt. eigenvalues --   -0.09685  -0.01889  -0.01720  -0.00463  -0.00148
 Alpha virt. eigenvalues --    0.00508   0.00917   0.01913   0.02089   0.02706
 Alpha virt. eigenvalues --    0.03033   0.03935   0.04246   0.05169   0.05811
 Alpha virt. eigenvalues --    0.06947   0.07344   0.07610   0.08260   0.08429
 Alpha virt. eigenvalues --    0.08883   0.09270   0.09684   0.10438   0.10543
 Alpha virt. eigenvalues --    0.10818   0.11175   0.11746   0.11963   0.12414
 Alpha virt. eigenvalues --    0.12931   0.12986   0.13554   0.13812   0.14022
 Alpha virt. eigenvalues --    0.14140   0.15089   0.15221   0.15438   0.15690
 Alpha virt. eigenvalues --    0.16003   0.16343   0.16550   0.16857   0.17053
 Alpha virt. eigenvalues --    0.17421   0.17829   0.18284   0.18443   0.18540
 Alpha virt. eigenvalues --    0.18872   0.19236   0.19340   0.19532   0.19611
 Alpha virt. eigenvalues --    0.19791   0.20054   0.20602   0.20671   0.20863
 Alpha virt. eigenvalues --    0.21018   0.21257   0.22136   0.22458   0.22605
 Alpha virt. eigenvalues --    0.22902   0.23299   0.23407   0.23828   0.24194
 Alpha virt. eigenvalues --    0.24650   0.25336   0.25680   0.25854   0.26288
 Alpha virt. eigenvalues --    0.26622   0.27600   0.27757   0.27975   0.28741
 Alpha virt. eigenvalues --    0.28985   0.30918   0.31279   0.33196   0.33226
 Alpha virt. eigenvalues --    0.34449   0.34793   0.34979   0.35853   0.36270
 Alpha virt. eigenvalues --    0.36559   0.37209   0.37670   0.38493   0.38638
 Alpha virt. eigenvalues --    0.39368   0.39568   0.40362   0.41110   0.42044
 Alpha virt. eigenvalues --    0.42362   0.42924   0.43560   0.43919   0.44296
 Alpha virt. eigenvalues --    0.44937   0.45267   0.46793   0.47620   0.48044
 Alpha virt. eigenvalues --    0.48487   0.48602   0.49852   0.50451   0.50855
 Alpha virt. eigenvalues --    0.51290   0.52069   0.52538   0.52906   0.53184
 Alpha virt. eigenvalues --    0.53686   0.54251   0.54632   0.54971   0.55227
 Alpha virt. eigenvalues --    0.56005   0.56073   0.56370   0.57074   0.57756
 Alpha virt. eigenvalues --    0.57916   0.58506   0.58731   0.59265   0.59347
 Alpha virt. eigenvalues --    0.59621   0.60065   0.60313   0.60352   0.60910
 Alpha virt. eigenvalues --    0.61142   0.61487   0.61795   0.61956   0.62301
 Alpha virt. eigenvalues --    0.62742   0.63015   0.63800   0.64334   0.64884
 Alpha virt. eigenvalues --    0.65369   0.65734   0.65929   0.66234   0.66543
 Alpha virt. eigenvalues --    0.66897   0.67137   0.67824   0.67991   0.68164
 Alpha virt. eigenvalues --    0.68469   0.69008   0.69837   0.69896   0.70103
 Alpha virt. eigenvalues --    0.70844   0.71236   0.71940   0.72767   0.72948
 Alpha virt. eigenvalues --    0.73305   0.73831   0.74031   0.74365   0.75160
 Alpha virt. eigenvalues --    0.75672   0.75948   0.76308   0.76605   0.76762
 Alpha virt. eigenvalues --    0.77463   0.78495   0.79141   0.79269   0.79591
 Alpha virt. eigenvalues --    0.80428   0.80636   0.80842   0.81156   0.81971
 Alpha virt. eigenvalues --    0.82698   0.83118   0.83378   0.83582   0.83912
 Alpha virt. eigenvalues --    0.84116   0.84283   0.84356   0.85044   0.85113
 Alpha virt. eigenvalues --    0.85698   0.85808   0.85848   0.86350   0.86989
 Alpha virt. eigenvalues --    0.87205   0.87832   0.88042   0.88129   0.88374
 Alpha virt. eigenvalues --    0.88988   0.89016   0.89178   0.89701   0.89830
 Alpha virt. eigenvalues --    0.89973   0.90388   0.90619   0.90933   0.91562
 Alpha virt. eigenvalues --    0.91939   0.92228   0.92336   0.92437   0.92586
 Alpha virt. eigenvalues --    0.93186   0.93725   0.93978   0.94471   0.94837
 Alpha virt. eigenvalues --    0.94933   0.95241   0.95534   0.95758   0.95994
 Alpha virt. eigenvalues --    0.96679   0.97016   0.97222   0.97835   0.98207
 Alpha virt. eigenvalues --    0.98628   0.99013   0.99210   0.99559   1.00327
 Alpha virt. eigenvalues --    1.00386   1.00794   1.00950   1.01874   1.02390
 Alpha virt. eigenvalues --    1.02870   1.03261   1.03802   1.04018   1.04168
 Alpha virt. eigenvalues --    1.04844   1.04917   1.05390   1.05867   1.06761
 Alpha virt. eigenvalues --    1.07134   1.07602   1.07887   1.08089   1.08868
 Alpha virt. eigenvalues --    1.09677   1.09902   1.10661   1.11290   1.12671
 Alpha virt. eigenvalues --    1.13107   1.13759   1.15609   1.16010   1.16239
 Alpha virt. eigenvalues --    1.16395   1.17189   1.17640   1.18178   1.19167
 Alpha virt. eigenvalues --    1.19654   1.20060   1.20302   1.21350   1.22510
 Alpha virt. eigenvalues --    1.23732   1.25137   1.25410   1.26052   1.27435
 Alpha virt. eigenvalues --    1.28238   1.28734   1.29341   1.30384   1.31895
 Alpha virt. eigenvalues --    1.32399   1.33048   1.33788   1.35405   1.36340
 Alpha virt. eigenvalues --    1.37058   1.37735   1.38354   1.38582   1.39632
 Alpha virt. eigenvalues --    1.39987   1.41304   1.42377   1.43554   1.44122
 Alpha virt. eigenvalues --    1.44500   1.46417   1.47469   1.48585   1.48837
 Alpha virt. eigenvalues --    1.49460   1.49581   1.50222   1.50648   1.51524
 Alpha virt. eigenvalues --    1.52164   1.52658   1.53453   1.53820   1.54281
 Alpha virt. eigenvalues --    1.54970   1.56136   1.56466   1.57100   1.58253
 Alpha virt. eigenvalues --    1.59042   1.60112   1.60957   1.61354   1.61817
 Alpha virt. eigenvalues --    1.62072   1.63110   1.63403   1.64629   1.65578
 Alpha virt. eigenvalues --    1.66244   1.67375   1.68005   1.70029   1.70606
 Alpha virt. eigenvalues --    1.71078   1.71457   1.73292   1.73598   1.74874
 Alpha virt. eigenvalues --    1.75688   1.77252   1.77588   1.78053   1.78570
 Alpha virt. eigenvalues --    1.79098   1.79998   1.80452   1.80873   1.81487
 Alpha virt. eigenvalues --    1.82282   1.83136   1.83575   1.83757   1.84080
 Alpha virt. eigenvalues --    1.84359   1.84990   1.85323   1.86075   1.87362
 Alpha virt. eigenvalues --    1.87443   1.88034   1.89497   1.90188   1.90428
 Alpha virt. eigenvalues --    1.90786   1.91318   1.92186   1.92619   1.92976
 Alpha virt. eigenvalues --    1.93198   1.93722   1.94061   1.94602   1.94934
 Alpha virt. eigenvalues --    1.95113   1.95349   1.95805   1.96066   1.96473
 Alpha virt. eigenvalues --    1.96585   1.97246   1.97748   1.97801   1.98122
 Alpha virt. eigenvalues --    1.98500   1.98890   1.99173   1.99401   1.99794
 Alpha virt. eigenvalues --    2.00045   2.00786   2.01211   2.01241   2.01977
 Alpha virt. eigenvalues --    2.02376   2.03075   2.03647   2.03993   2.04404
 Alpha virt. eigenvalues --    2.05886   2.07032   2.07500   2.07905   2.08570
 Alpha virt. eigenvalues --    2.09092   2.09478   2.10606   2.11345   2.12286
 Alpha virt. eigenvalues --    2.12492   2.14020   2.14357   2.14542   2.15406
 Alpha virt. eigenvalues --    2.16307   2.17052   2.17241   2.17596   2.17680
 Alpha virt. eigenvalues --    2.18388   2.18948   2.19529   2.20509   2.21031
 Alpha virt. eigenvalues --    2.21418   2.22107   2.22961   2.23427   2.24587
 Alpha virt. eigenvalues --    2.25660   2.25838   2.26038   2.27157   2.27780
 Alpha virt. eigenvalues --    2.28608   2.28914   2.29606   2.29793   2.29924
 Alpha virt. eigenvalues --    2.31111   2.31144   2.31228   2.32134   2.32704
[...]
 0.00000111,0.00000183,0.00000018,0.00000854,0.00001188,-0.00002859,-0.
 00001042,0.00000047,0.00001323,0.00000943,-0.00001503,0.00000635,-0.00
 000283,-0.00000032,0.00000803,-0.00045310,-0.00044400,0.00027525,0.000
 00663,-0.00000957,0.00000407,-0.00001167,-0.00000395,-0.00000673,0.000
 00981,0.00002045,0.00002138,-0.00000061,-0.00002035,-0.00000469,0.0000
 3050,0.00003361,-0.00000218,-0.00001067,-0.00002268,-0.00001430,-0.000
 00015,-0.00001737,-0.00001398,0.00000218,0.00000967,0.00000003,-0.0000
 0292,0.00002169,-0.00003139,-0.00001431,-0.00001794,0.00002397,0.00001
 633,-0.00001863,0.00001584,0.00000109,0.00000622,-0.00000764,-0.000012
 45,0.00001817,0.00002833,0.00000847,-0.00000845,-0.00001480,-0.0000122
 9,-0.00002293,-0.00001194,0.00002465,-0.00002565,-0.00000130,-0.000000
 83,-0.00002108,-0.00001822,0.00000708,0.00001205,-0.00001439,0.0000134
 4,0.00000811,0.00000376,-0.00006763,0.00000032,0.00006741,0.00000673,-
 0.00003744,-0.00008502,0.00004694,0.00001492,-0.00001804,-0.00001117,0
 .00000255,0.00002207,-0.00002815,0.00001085,0.00001940,0.00001454,-0.0
 0000511,-0.00001267,0.00002183,-0.00000861,-0.00001633,0.00000285,0.00
 001572,-0.00000419,-0.00001817,-0.00000123,0.00002752,0.00000724,0.000
 01220,-0.00001103,0.00000488,-0.00000854,-0.00000343,-0.00000787,0.000
 00580,0.00000740,0.00000190,-0.00000040,-0.00000849,0.00000048,0.00000
 022,0.00000207,-0.00000169,0.00000076,-0.00000180,-0.00000550,0.000002
 54,-0.00000057,0.00001147,-0.00000048,-0.00000175,0.00000097,0.0000034
 0,0.00000558,0.00000138,-0.00000190,0.00000184,-0.00000434,0.00000569,
 -0.00000661,0.00000138,-0.00000265,-0.00000025,-0.00001899,-0.00000510
 ,-0.00000957,-0.00000065,-0.00000274,-0.00000178,0.00000231,0.00000280
 ,0.00000057,0.00000229,0.00000003,-0.00000562,0.00000167,-0.00000125,-
 0.00000371,-0.00001161,0.00000071,0.00000723,-0.00000412,0.00000128,0.
 00000303,-0.00001558,0.00000150,0.00002817,-0.00034876,0.00063575,0.00
 070606,0.00208636,0.00552250,-0.00179115,-0.00720080,-0.00265249,-0.01
 644887,-0.00004878,0.00001194,-0.00103403,0.00334001,-0.00103291,0.005
 16808,-0.12365483,0.01160572,-0.13663275,-0.00145561,-0.00166685,0.001
 67844,-0.00146631,-0.00164857,0.00093700,0.12401007,0.00004684,0.00001
 181,0.00018731,0.00001694,0.00001215,-0.00005371,0.00000323,-0.0000157
 9,0.00001445,-0.00000367,0.00000536,0.00000460,0.00000926,0.00000695,0
 .00000100,-0.00001773,0.00000031,0.00001985,-0.00000546,-0.00001548,-0
 .00000281,0.00002984,0.00001083,-0.00003099,-0.00001942,-0.00000454,0.
 00003130,0.00000073,0.00000135,-0.00000169,0.00000160,0.00000161,0.000
 00118,-0.00001502,-0.00000009,-0.00000577,-0.00000164,-0.00000167,0.00
 000262,0.00000431,-0.00001156,-0.00000893,-0.00000259,0.00000025,0.000
 00345,-0.00000188,-0.00000924,-0.00001452,-0.00000399,-0.00000359,0.00
 000344,0.00000083,-0.00000063,0.00000201,-0.00000046,0.00000056,0.0000
 0023,0.00000454,0.00000833,-0.00002773,-0.00002344,0.00001742,-0.00000
 948,-0.00000544,-0.00002540,0.00001547,-0.00000021,-0.00000499,0.00001
 367,-0.00060677,0.00006346,0.00009137,-0.00002061,0.00000634,0.0000103
 0,0.00001315,-0.00000577,0.00002799,0.00000387,0.00002811,-0.00007995,
 -0.00001403,-0.00002595,0.00004393,0.00003702,-0.00001043,-0.00007613,
 -0.00001520,0.00006151,0.00011004,0.00000316,-0.00000089,0.00003327,-0
 .00000271,-0.00000517,-0.00000177,-0.00001719,0.00003771,-0.00010179,-
 0.00000796,0.00000831,0.00008417,0.00004291,-0.00002782,0.00004721,0.0
 0000658,0.00000728,-0.00002376,-0.00000735,0.00002183,0.00001465,0.000
 00424,-0.00001542,-0.00000103,-0.00001436,-0.00000902,-0.00000162,0.00
 001457,0.00000909,0.00000045,0.00002325,-0.00003422,0.00000991,-0.0000
 0479,0.00002835,-0.00001281,-0.00000173,0.00001940,0.00000039,-0.00000
 339,0.00000305,-0.00002153,0.00000645,-0.00007605,0.00002948,0.0000027
 1,-0.00001469,0.00000973,-0.00000441,0.00000697,0.00000095,-0.00000255
 ,0.00001218,0.00000335,0.00000098,-0.00001147,-0.00000120,0.00000377,-
 0.00000665,-0.00000298,0.00001689,-0.00003122,0.00004157,0.00001037,0.
 00000981,-0.00002025,-0.00000832,-0.00004580,-0.00004967,-0.00000497,0
 .00000231,-0.00000041,0.00000673,0.00000085,-0.00000585,-0.00000428,0.
 00000105,0.00000400,0.00000286,-0.00000360,-0.00000084,-0.00000028,0.0
 0000161,0.00000303,-0.00000062,0.00000535,-0.00000200,0.00000513,-0.00
 000167,-0.00000035,0.00000067,0.00000208,0.00000389,0.00000020,-0.0000
 0311,0.00000278,-0.00001820,0.00000725,-0.00000854,0.00000865,-0.00000
 250,-0.00001051,-0.00003275,-0.00003832,0.00000805,0.00000283,-0.00000
 268,0.00000266,-0.00003785,0.00002509,-0.00003263,0.00000004,-0.000001
 55,0.00000038,-0.00000073,0.00000222,-0.00000555,-0.00000343,0.0000188
 4,0.00000053,0.00000040,0.00000407,-0.00000097,-0.00000353,0.00000742,
 0.00000719,0.00093749,-0.00166347,0.00001460,0.00515783,-0.00180933,-0
 .00121058,0.01188005,0.00380923,0.02251806,0.00076425,0.00024606,0.001
 03087,-0.01568855,0.00514162,-0.01933099,0.01107872,-0.05286225,-0.004
 67838,-0.00207914,-0.00008898,0.00057485,-0.00106553,-0.00040812,0.001
 34756,-0.01355625,0.04883815,0.00008972,0.00014667,0.00018562,0.000098
 85,0.00010136,-0.00002719,-0.00000969,-0.00001585,0.00001049,-0.000010
 50,-0.00000077,0.00000004,0.00001037,-0.00000136,0.00000428,-0.0000176
 9,-0.00000081,0.00002129,-0.00000305,-0.00002295,0.00000231,0.00002137
 ,0.00001007,-0.00005192,-0.00001235,0.00000257,0.00001993,0.00000179,0
 .00000167,-0.00000333,0.00000038,-0.00000137,0.00000020,0.00001062,0.0
 0001083,-0.00000078,-0.00000295,-0.00000697,0.00000240,0.00000382,0.00
 000075,-0.00000651,-0.00000520,0.00000149,0.00000070,0.00000036,-0.000
 00611,-0.00001525,-0.00000522,-0.00000615,0.00000176,0.00000102,0.0000
 0178,0.00000250,0.00000011,0.00000219,0.00000180,-0.00000282,0.0000046
 1,-0.00000715,-0.00002294,0.00003096,-0.00001755,-0.00000748,-0.000019
 11,0.00001707,0.00000069,-0.00000778,0.00000612,0.00021991,0.00030484,
 -0.00017162,-0.00000456,0.00001201,0.00002157,0.00002093,0.00001228,0.
 00002248,-0.00004023,-0.00005188,-0.00010277,0.00001809,0.00003759,0.0
 0003988,-0.00009750,-0.00008762,-0.00008231,0.00011063,0.00003229,0.00
 010018,0.00003252,0.00003194,0.00006816,-0.00001378,-0.00001788,-0.000
 00085,-0.00006054,0.00005904,-0.00010950,0.00002087,-0.00000490,0.0000
 7971,0.00008509,-0.00003615,0.00005594,0.00000789,0.00000683,-0.000023
 08,-0.00003742,-0.00000129,0.00001761,0.00004206,0.00000435,-0.0000089
 2,-0.00005187,-0.00001272,-0.00000640,0.00000547,-0.00009396,-0.000015
 65,0.00007062,-0.00002017,0.00004160,-0.00003273,0.00001176,0.00001893
 ,-0.00004335,0.00002751,-0.00000164,0.00004135,-0.00006787,-0.00023013
 ,0.00004362,0.00008867,0.00027374,-0.00004885,-0.00000160,0.00006632,0
 .00002150,-0.00000240,-0.00002564,-0.00000104,-0.00001820,-0.00004895,
 0.00000490,0.00001245,0.00003898,-0.00001743,0.00001222,0.00002616,0.0
 0001601,-0.00003026,0.00004296,0.00003454,0.00000735,-0.00004500,-0.00
 001042,-0.00004163,-0.00003371,-0.00001156,0.00001496,0.00000262,0.000
 01277,-0.00001102,-0.00002243,-0.00000148,0.00000261,0.00000596,0.0000
 0554,-0.00000265,-0.00000052,0.00000197,0.00000438,0.00000313,-0.00000
 805,0.00000705,-0.00000349,0.00002378,0.00000242,-0.00000055,0.0000084
 8,0.00000677,0.00000573,0.00000705,-0.00000274,0.00000503,-0.00004383,
 0.00001650,-0.00001627,0.00001907,0.00000316,-0.00001156,-0.00003591,-
 0.00003889,0.00001843,0.00001373,-0.00000172,0.00000975,-0.00007354,0.
 00003174,-0.00002711,-0.00000606,-0.00000350,0.00000828,-0.00001124,0.
 00000349,0.00000096,0.00001963,-0.00000395,-0.00002353,0.00000324,-0.0
 0000173,-0.00000476,0.00000642,0.00001484,0.00001745,0.00112522,-0.000
 80510,0.00067080,-0.00227980,-0.00044606,0.00277024,-0.00103594,-0.000
 91994,-0.00149291,-0.00013781,-0.00028167,0.00001914,-0.01133256,0.004
 77525,-0.01341103,-0.13589675,-0.00456743,-0.26115214,0.00129059,0.001
 26958,-0.00015009,0.00134159,0.00075503,-0.00015315,0.14838917,0.00506
 872,0.27347008,-0.00023601,0.00128053,0.00111622,0.00038292,0.00081325
 ,0.00009041,0.00003160,-0.00017491,-0.00003961,-0.00006674,-0.00000971
 ,0.00011718,0.00026911,0.00019678,0.00008786,-0.00078298,-0.00010343,0
 .00063674,-0.00007522,-0.00062159,-0.00018803,0.00041350,-0.00050484,-
 0.00065220,-0.00018899,0.00005374,0.00016473,-0.00000223,-0.00001332,-
 0.00002050,-0.00001833,-0.00003599,-0.00001717,-0.00013777,-0.00030456
 ,-0.00008039,0.00002934,-0.00002454,0.00003981,-0.00013427,0.00006312,
 -0.00016352,0.00004836,0.00009469,0.00000479,-0.00000011,-0.00012329,-
 0.00015037,-0.00005675,-0.00005995,0.00001495,-0.00000037,0.00003114,0
 .00001287,0.00001429,0.00001936,0.00001049,-0.00047353,0.00029335,0.00
 017260,-0.00009214,-0.00024473,-0.00019789,0.00001401,-0.00010375,0.00
 008589,0.00016037,-0.00001547,-0.00003225,-0.02188517,0.01561306,-0.02
 312268,-0.00013235,0.00009486,0.00000173,0.00003843,-0.00005948,0.0000
 1260,-0.00008997,-0.00026288,-0.00045477,0.00001163,0.00019854,0.00013
 524,0.00073990,-0.00007674,0.00014864,-0.00076469,0.00076453,0.0004721
 7,0.00006087,0.00020104,0.00027736,-0.00005232,-0.00016463,-0.00000520
 ,-0.00020022,0.00014717,-0.00057740,0.00011802,0.00014730,0.00045777,0
 .00055526,0.00005882,0.00038334,0.00005850,-0.00005683,-0.00018161,-0.
 00011703,-0.00104227,-0.00087579,-0.00007554,0.00026285,0.00059517,-0.
 00049578,-0.00009558,-0.00020989,0.00015270,-0.00067393,0.00015711,0.0
 0018856,0.00089896,0.00063540,0.00013024,0.00029732,0.00032419,-0.0004
 1602,-0.00080682,-0.00037907,0.00121083,-0.00031390,-0.00195438,-0.001
 55810,-0.00015341,0.00141070,-0.00077488,-0.00017337,0.00055850,0.0000
 5467,-0.00003225,-0.00025390,0.00022807,-0.00005464,-0.00009975,-0.000
 11558,0.00002093,0.00007721,-0.00018088,0.00005602,0.00011533,-0.00002
 156,-0.00005603,0.00000655,0.00010530,0.00002364,-0.00004595,-0.000174
 75,-0.00040654,-0.00023915,-0.00003471,0.00004137,-0.00000126,0.000042
 80,-0.00001768,-0.00002725,-0.00004625,-0.00000606,0.00003604,0.000031
 73,-0.00000971,-0.00001127,0.00000438,0.00001717,0.00002704,0.00001810
 ,-0.00001172,-0.00000777,0.00025345,0.00004240,0.00001359,0.00008033,0
 .00002799,0.00003300,0.00005025,0.00002978,0.00006008,-0.00043076,-0.0
 0006146,-0.00022337,-0.00006771,-0.00001886,0.00057424,-0.00005776,0.0
 0073348,0.00014614,-0.00012111,0.00003454,0.00002623,0.00094433,-0.000
 81313,-0.00067452,-0.00003682,-0.00000617,0.00006769,-0.00002920,0.000
 01543,0.00001865,0.00012112,0.00007755,0.00000339,0.00002054,-0.000001
 43,-0.00002249,-0.00015821,-0.00000091,0.00013395,-0.16057224,0.110911
 83,-0.03902836,0.00924771,0.04790404,0.03700232,-0.03748446,0.01851244
 ,-0.02810236,0.00458236,0.00303965,-0.00059692,-0.14452985,0.02459626,
 -0.10444485,0.03279345,-0.04599403,-0.03285560,-0.00213420,-0.00125079
 ,0.00070992,-0.01408440,-0.00342560,-0.02355121,0.00528502,0.00317455,
 -0.00186917,0.33061594,-0.00029480,-0.00205771,-0.00092965,0.00073773,
 -0.00097970,0.00155061,0.00000262,0.00011154,-0.00016150,0.00000291,0.
 00008561,-0.00011122,-0.00038623,-0.00006787,-0.00011692,-0.00032779,-
 0.00014942,0.00083120,-0.00043510,-0.00061237,-0.00043538,0.00054868,-
 0.00054561,-0.00092364,-0.00014878,0.00031836,-0.00041620,-0.00000259,
 -0.00000413,0.00011128,-0.00007952,-0.00013442,-0.00007967,0.00003707,
 0.00028817,-0.00002294,0.00012085,0.00006773,-0.00009809,0.00014560,-0
 .00023296,0.00023053,-0.00013178,-0.00004354,-0.00003427,0.00009244,-0
 .00007003,0.00008016,-0.00002062,0.00001563,-0.00004872,0.00000735,0.0
 0009406,-0.00006502,-0.00001411,0.00001970,0.00000599,0.00031905,-0.00
 027975,-0.00070147,-0.00104480,0.00061807,0.00033785,-0.00019252,-0.00
 002690,0.00009822,-0.00034480,-0.00040272,0.00019284,0.01299726,-0.001
 52920,0.01944123,0.00012723,-0.00005121,0.00001105,0.00000833,0.000049
 05,0.00001779,-0.00008119,-0.00010476,0.00023613,0.00007947,0.00010477
 ,-0.00013991,-0.00070787,-0.00014197,-0.00021336,0.00091855,-0.0002119
 3,-0.00015353,0.00003978,0.00001496,-0.00008042,-0.00001310,0.00003055
 ,0.00000051,-0.00007144,-0.00013623,0.00057485,0.00024896,-0.00010984,
 -0.00047269,-0.00031339,0.00002486,-0.00038978,-0.00000328,-0.00006114
 ,0.00025345,0.00002933,0.00019536,0.00016975,0.00007572,0.00003753,-0.
 00021391,0.00023474,0.00034737,0.00023272,-0.00035570,0.00073102,-0.00
 019076,-0.00009558,-0.00005302,-0.00022392,0.00004433,-0.00028672,0.00
 013280,0.00010514,-0.00049325,0.00019199,-0.00009544,0.00005888,0.0003
 1203,-0.00002845,0.00023593,-0.00025111,0.00007074,0.00005046,-0.00008
 682,-0.00000438,-0.00003451,0.00003682,-0.00001539,-0.00002156,0.00003
 651,0.00000501,0.00002197,-0.00003030,0.00001823,0.00001094,-0.0000225
 5,0.00003907,0.00002361,0.00001165,0.00002046,-0.00000509,0.00003889,-
 0.00017184,0.00029818,0.00013007,0.00000153,0.00000568,-0.00000292,-0.
 00001652,-0.00000376,0.00000262,0.00003474,0.00000328,-0.00001976,-0.0
 0000883,0.00001219,0.00000256,0.00001520,-0.00000757,-0.00001908,-0.00
 000206,-0.00000840,0.00001751,-0.00018488,-0.00005292,0.00002777,-0.00
 001442,-0.00007771,-0.00007656,0.00001070,0.00000822,-0.00005287,0.000
 10376,0.00014119,0.00030483,-0.00010584,0.00001906,0.00012019,0.000215
 12,0.00073352,0.00012198,-0.00003010,0.00006852,-0.00005559,-0.0003648
 8,0.00010702,0.00047499,0.00000753,0.00001014,-0.00001164,0.00000461,-
 0.00001529,0.00001384,-0.00000784,-0.00005167,0.00001392,-0.00000754,-
 0.00001260,0.00000997,-0.00002847,0.00016897,-0.00019348,0.10916679,-0
 .22116780,0.01396136,0.02611840,-0.04427156,-0.02631593,0.01645061,-0.
 01352481,0.02184683,0.00300980,-0.00199732,-0.00598257,0.01276317,-0.1
 0478164,-0.02960002,-0.01746381,0.03390337,-0.01543921,-0.00125838,-0.
 00056898,0.00129700,0.00901760,0.00497868,0.02518453,0.00328038,-0.001
 21440,-0.00528843,-0.17240254,0.35258984,0.00068845,0.00151391,0.00110
 691,0.00000434,0.00088897,-0.00194474,-0.00006257,-0.00033722,0.000251
 47,-0.00017767,0.00009771,0.00018538,0.00035641,0.00007655,0.00011036,
 -0.00045090,-0.00025088,-0.00018263,0.00025010,0.00010581,0.00034285,-
 0.00008962,0.00028453,0.00055260,-0.00019927,-0.00014501,0.00063481,0.
 00003655,0.00007264,-0.00006836,0.00007982,0.00010412,0.00004611,-0.00
 033482,-0.00037334,-0.00005580,-0.00003493,-0.00004369,0.00010095,-0.0
 0015235,0.00007345,-0.00026907,0.00004068,0.00010427,0.00007620,-0.000
 01332,-0.00005955,-0.00024556,-0.00004997,-0.00006268,0.00006865,0.000
 00611,-0.00004495,0.00005750,-0.00002251,0.00001515,0.00001571,-0.0000
 6409,0.00018337,0.00028997,0.00013481,-0.00065051,-0.00021060,0.000052
 20,-0.00011351,0.00007586,0.00012517,0.00020153,-0.00004366,-0.0280833
 8,0.02453887,-0.01915432,-0.00007537,0.00007295,0.00015065,-0.00003855
 ,-0.00002888,-0.00000406,-0.00007187,-0.00005890,-0.00057172,0.0000569
 1,-0.00002325,0.00027922,0.00057145,-0.00006974,-0.00004672,-0.0007299
 5,0.00070420,0.00089532,0.00015803,0.00003310,0.00032132,-0.00004790,-
 0.00005029,-0.00000338,-0.00030813,0.00051311,-0.00114771,-0.00009618,
 -0.00001892,0.00086575,0.00075218,-0.00034321,0.00059611,0.00009538,0.
 00012716,-0.00031886,-0.00032324,0.00024385,0.00040400,0.00029879,-0.0
 0011390,-0.00016181,-0.00038059,-0.00023840,-0.00001562,0.00007730,-0.
 00049132,-0.00013829,0.00043965,-0.00049258,0.00016606,-0.00013339,0.0
 0037393,-0.00006397,-0.00025610,0.00089136,-0.00032213,-0.00048564,-0.
 00041148,-0.00055112,0.00064840,0.00006779,0.00047714,0.00034233,0.000
 17413,0.00010331,0.00003567,0.00003172,0.00009386,-0.00028151,-0.00001
 037,-0.00016611,0.00017923,0.00002561,0.00014613,0.00010296,-0.0000066
 6,0.00002095,0.00002811,-0.00009461,0.00010285,0.00001891,0.00003624,-
 0.00011649,0.00004097,-0.00042495,-0.00029243,-0.00002408,0.00001729,0
 .00000018,0.00002318,-0.00001965,-0.00008974,-0.00003280,0.00000629,-0
 .00001158,0.00003583,-0.00002167,0.00001154,-0.00000979,0.00003345,0.0
 0001365,-0.00009201,0.00007266,-0.00003414,0.00018577,0.00000389,-0.00
 000445,0.00002283,0.00009779,0.00009355,0.00004536,-0.00004735,0.00006
 501,-0.00036365,0.00005316,-0.00029637,0.00028221,-0.00002118,-0.00041
 776,0.00018529,-0.00076189,-0.00078268,0.00009680,-0.00008624,0.000036
 16,-0.00025068,0.00031884,-0.00054577,-0.00000901,-0.00002855,-0.00001
 619,-0.00004990,0.00001546,-0.00004325,-0.00001221,-0.00001741,-0.0000
 8923,-0.00000998,0.00000173,-0.00000635,0.00000121,0.00014467,-0.00019
 002,-0.03702825,0.01603472,-0.11604338,0.01338862,0.00885224,0.0515306
 9,-0.03062148,0.02581414,-0.03119897,-0.00132794,-0.00522588,-0.000820
 78,-0.12197376,-0.00829278,-0.27129492,-0.00162325,-0.06404336,-0.0518
 6424,0.00076496,0.00110335,-0.00071702,-0.00728153,0.00400287,-0.01330
 963,-0.00116089,-0.00560880,-0.00069293,0.21418205,0.00100498,0.454275
 74\\-0.00000076,-0.00001280,-0.00001305,-0.00000658,-0.00000429,0.0000
 0373,0.00000111,-0.00000045,0.00000690,0.00000273,-0.00000060,0.000000
 11,0.00000390,0.00000176,-0.00000512,0.00000363,0.00000616,-0.00000542
 ,-0.00000025,-0.00000196,-0.00000227,-0.00000209,0.00000261,-0.0000009
 4,-0.00000149,0.00000445,-0.00000443,0.00000084,-0.00000067,0.00000360
 ,-0.00000170,0.00000114,-0.00000126,-0.00000174,-0.00000478,-0.0000042
 2,0.00000064,-0.00000266,0.00000061,0.00000029,-0.00000077,0.00000058,
 -0.00000060,0.00000132,-0.00000484,-0.00000239,0.00000169,-0.00000037,
 0.00000103,-0.00000081,-0.00000373,0.00000005,-0.00000055,-0.00000087,
 -0.00000168,-0.00000164,0.00000030,-0.00000067,0.00000157,-0.00000499,
 -0.00000191,0.00000294,0.00000269,-0.00000132,-0.00000069,0.00000009,-
 0.00000375,-0.00000101,0.00000030,0.00000141,-0.00000639,0.00001023,-0
 .00000748,-0.00000351,0.00000132,0.00000633,0.00000423,-0.00000288,0.0
 0001333,-0.00000178,0.00000425,-0.00000828,0.00000427,-0.00000316,0.00
 000563,0.00000701,0.00000503,-0.00000228,-0.00000820,0.00000417,0.0000
 0257,0.00000555,-0.00000767,-0.00001321,0.00000908,0.00000632,-0.00001
 226,-0.00001798,-0.00002084,0.00000618,0.00000949,0.00001193,0.0000108
 6,-0.00000116,0.00000138,0.00003093,-0.00000639,0.00001201,-0.00002983
 ,0.00001678,-0.00002622,0.00001365,-0.00001690,0.00000823,-0.00000139,
 0.00000560,-0.00000655,0.00000802,0.00000302,-0.00000044,0.00000135,0.
 00001113,0.00000735,-0.00000384,0.00001342,-0.00000039,0.00000246,-0.0
 0001203,0.00000999,0.00000364,-0.00003004,-0.00000345,-0.00000596,0.00
 001004,0.00001014,-0.00000379,0.00000645,0.00000343,-0.00000243,-0.000
 03379,0.00000959,0.00001267,0.00009455,-0.00004182,-0.00000357,-0.0000
 3512,0.00001858,-0.00000188,-0.00002720,0.00001498,-0.00000149,0.00000
 045,-0.00000045,0.00000003,0.00000036,0.00000320,-0.00000733,-0.000000
 17,-0.00000263,0.00000074,-0.00000137,0.00000161,-0.00000412,-0.000001
 64,-0.00000045,-0.00000052,-0.00000022,0.00000187,-0.00000092,0.000001
 33,0.00000094,-0.00000173,0.00000232,-0.00000084,0.00000025,0.00000040
 ,0.00000240,0.00000284,0.00000128,0.00000309,-0.00000160,0.00000165,0.
 00000365,-0.00000216,-0.00000568,-0.00000072,-0.00000163,-0.00000066,0
 .00000038,0.00000559,0.00000331,-0.00000217,0.00000210,0.00000099,-0.0
 0000437,0.00000245,0.00000448,-0.00000175,-0.00000244,-0.00000359,0.00
 000738,0.00000820,-0.00000192,0.00000440,-0.00000513,0.00000364,-0.000
 00431,0.00000101,0.00000307,0.00000256,0.00000066,-0.00000117,0.000002
 17,0.00000865,-0.00000242,-0.00000204,0.00000863,0.00000823,-0.0000057
 6,-0.00001174,-0.00000303,-0.00000222,0.00000106,0.00000077,0.00000087
 ,0.00000180,0.00000145,-0.00000194,-0.00000537,-0.00000365,-0.00000359
 ,0.00000464,0.00000397,0.00000048,-0.00000234,0.00000044,-0.00000036,-
 0.00000287,-0.00000128,-0.00000099,-0.00000297,-0.00000180,0.00000092,
 -0.00000439,0.00000038,0.00000574\\\@


 KNOWLEDGE IS OF TWO KINDS:  WE KNOW A SUBJECT OURSELVES OR WE KNOW 
 WHERE WE CAN FIND INFORMATION UPON IT.

                                    -- SAMUEL JOHNSON
 Job cpu time:       0 days 14 hours 23 minutes  6.1 seconds.
 File lengths (MBytes):  RWF=   5264 Int=      0 D2E=      0 Chk=     42 Scr=      1
 Normal termination of Gaussian 09 at Thu May  4 16:25:27 2023.
