 Entering Gaussian System, Link 0=g09
 Input=AF21-helio.com
 Output=AF21-helio.log
 Initial command:
 /home/scr/programs/g09/l1.exe "/home/scr/guest2/Gau-16481.inp" -scrdir="/home/scr/guest2/"
 Entering Link 1 = /home/scr/programs/g09/l1.exe PID=     16482.
  
 Copyright (c) 1988,1990,1992,1993,1995,1998,2003,2009,2013,
            Gaussian, Inc.  All Rights Reserved.
  
 This is part of the Gaussian(R) 09 program.  It is based on
 the Gaussian(R) 03 system (copyright 2003, Gaussian, Inc.),
 the Gaussian(R) 98 system (copyright 1998, Gaussian, Inc.),
 the Gaussian(R) 94 system (copyright 1995, Gaussian, Inc.),
 the Gaussian 92(TM) system (copyright 1992, Gaussian, Inc.),
 the Gaussian 90(TM) system (copyright 1990, Gaussian, Inc.),
 the Gaussian 88(TM) system (copyright 1988, Gaussian, Inc.),
 the Gaussian 86(TM) system (copyright 1986, Carnegie Mellon
 University), and the Gaussian 82(TM) system (copyright 1983,
 Carnegie Mellon University). Gaussian is a federally registered
 trademark of Gaussian, Inc.
  
 This software contains proprietary and confidential information,
 including trade secrets, belonging to Gaussian, Inc.
  
 This software is provided under written license and may be
 used, copied, transmitted, or stored only in accord with that
 written license.
  
 The following legend is applicable only to US Government
 contracts under FAR:
  
                    RESTRICTED RIGHTS LEGEND
  
 Use, reproduction and disclosure by the US Government is
 subject to restrictions as set forth in subparagraphs (a)
 and (c) of the Commercial Computer Software - Restricted
 Rights clause in FAR 52.227-19.
  
 Gaussian, Inc.
 340 Quinnipiac St., Bldg. 40, Wallingford CT 06492
  
  
 ---------------------------------------------------------------
 Warning -- This program may not be used in any manner that
 competes with the business of Gaussian, Inc. or will provide
 assistance to any competitor of Gaussian, Inc.  The licensee
 of this program is prohibited from giving any competitor of
 Gaussian, Inc. access to this program.  By using this program,
 the user acknowledges that Gaussian, Inc. is engaged in the
 business of creating and licensing software in the field of
 computational chemistry and represents and warrants to the
 licensee that it is not a competitor of Gaussian, Inc. and that
 it will not use this program in any manner prohibited above.
 ---------------------------------------------------------------
  

 Cite this work as:
 Gaussian 09, Revision D.01,
 M. J. Frisch, G. W. Trucks, H. B. Schlegel, G. E. Scuseria, 
 M. A. Robb, J. R. Cheeseman, G. Scalmani, V. Barone, B. Mennucci, 
 G. A. Petersson, H. Nakatsuji, M. Caricato, X. Li, H. P. Hratchian, 
 A. F. Izmaylov, J. Bloino, G. Zheng, J. L. Sonnenberg, M. Hada, 
 M. Ehara, K. Toyota, R. Fukuda, J. Hasegawa, M. Ishida, T. Nakajima, 
 Y. Honda, O. Kitao, H. Nakai, T. Vreven, J. A. Montgomery, Jr., 
 J. E. Peralta, F. Ogliaro, M. Bearpark, J. J. Heyd, E. Brothers, 
 K. N. Kudin, V. N. Staroverov, T. Keith, R. Kobayashi, J. Normand, 
 K. Raghavachari, A. Rendell, J. C. Burant, S. S. Iyengar, J. Tomasi, 
 M. Cossi, N. Rega, J. M. Millam, M. Klene, J. E. Knox, J. B. Cross, 
 V. Bakken, C. Adamo, J. Jaramillo, R. Gomperts, R. E. Stratmann, 
 O. Yazyev, A. J. Austin, R. Cammi, C. Pomelli, J. W. Ochterski, 
 R. L. Martin, K. Morokuma, V. G. Zakrzewski, G. A. Voth, 
 P. Salvador, J. J. Dannenberg, S. Dapprich, A. D. Daniels, 
 O. Farkas, J. B. Foresman, J. V. Ortiz, J. Cioslowski, 
 and D. J. Fox, Gaussian, Inc., Wallingford CT, 2013.
 
 ******************************************
 Gaussian 09:  EM64L-G09RevD.01 24-Apr-2013
                 2-May-2023 
 ******************************************
 %mem=30000MB
 %nprocshared=8
 Will use up to    8 processors via shared memory.
 ----------------------------------------
 # opt freq=noraman b3lyp/gen pseudo=read
 ----------------------------------------
 1/14=-1,18=20,19=15,26=3,38=1/1,3;
 2/9=110,12=2,17=6,18=5,40=1/2;
 3/5=7,11=2,16=1,17=8,25=1,30=1,71=1,74=-5/1,2,3;
 4//1;
 5/5=2,38=5/2;
 6/7=2,8=2,9=2,10=2,28=1/1;
 7//1,2,3,16;
 1/14=-1,18=20,19=15,26=3/3(2);
 2/9=110/2;
 99//99;
 2/9=110/2;
 3/5=7,6=1,11=2,16=1,17=8,25=1,30=1,71=1,74=-5,82=7/1,2,3;
 4/5=5,16=3,69=1/1;
 5/5=2,38=5/2;
 7//1,2,3,16;
 1/14=-1,18=20,19=15,26=3/3(-5);
 2/9=110/2;
 6/7=2,8=2,9=2,10=2,19=2,28=1/1;
 99/9=1/99;
 --
 af
 --
 Symbolic Z-matrix:
 Charge =  0 Multiplicity = 1
 Au                    0.17761  -0.52415  -0.15955 
 S                    -1.92101  -1.5486   -0.30826 
 P                     2.29937   0.35019  -0.05019 
 C                     2.7454    0.9866    1.60584 
 C                     2.67704  -0.06966   2.70486 
 H                     2.04753   1.80389   1.81717 
 H                     3.74653   1.42888   1.54205 
 H                     2.89304   0.38422   3.67672 
 H                     1.68192  -0.52371   2.75594 
 H                     3.4059   -0.87028   2.54404 
 C                     3.55927  -0.904    -0.48882 
 C                     5.01784  -0.4613   -0.41967 
 H                     3.29799  -1.23789  -1.49957 
 H                     3.37818  -1.76075   0.16958 
 H                     5.66807  -1.29194  -0.71157 
 H                     5.22406   0.37287  -1.09652 
 H                     5.30548  -0.15904   0.59179 
 C                     2.57672   1.75325  -1.19144 
 C                     1.54592   2.87028  -1.05198 
 H                     2.55129   1.33133  -2.20267 
 H                     3.59      2.13501  -1.02264 
 H                     1.74387   3.65665  -1.78678 
 H                     0.53162   2.49441  -1.22129 
 H                     1.57616   3.33079  -0.05973 
 C                    -3.16675  -0.33282  -0.02796 
 C                    -2.88865   1.01583   0.25369 
 N                    -4.42296  -0.7906   -0.10173 
 C                    -3.94321   1.89028   0.45946 
 H                    -1.86052   1.35783   0.30691 
 C                    -5.42657   0.06611   0.09928 
 C                    -5.25119   1.41382   0.38249 
 H                    -3.74606   2.93615   0.67824 
 H                    -6.42851  -0.35456   0.02851 
 H                    -6.10623   2.06295   0.53656 
 

 GradGradGradGradGradGradGradGradGradGradGradGradGradGradGradGradGradGrad
 Berny optimization.
 Initialization pass.
                           ----------------------------
                           !    Initial Parameters    !
                           ! (Angstroms and Degrees)  !
 --------------------------                            --------------------------
 ! Name  Definition              Value          Derivative Info.                !
 --------------------------------------------------------------------------------
 ! R1    R(1,2)                  2.34           estimate D2E/DX2                !
 ! R2    R(1,3)                  2.2975         estimate D2E/DX2                !
 ! R3    R(2,25)                 1.7631         estimate D2E/DX2                !
 ! R4    R(3,4)                  1.8293         estimate D2E/DX2                !
 ! R5    R(3,11)                 1.831          estimate D2E/DX2                !
 ! R6    R(3,18)                 1.8297         estimate D2E/DX2                !
 ! R7    R(4,5)                  1.5258         estimate D2E/DX2                !
 ! R8    R(4,6)                  1.0953         estimate D2E/DX2                !
 ! R9    R(4,7)                  1.0963         estimate D2E/DX2                !
 ! R10   R(5,8)                  1.0942         estimate D2E/DX2                !
 ! R11   R(5,9)                  1.095          estimate D2E/DX2                !
 ! R12   R(5,10)                 1.0946         estimate D2E/DX2                !
 ! R13   R(11,12)                1.5258         estimate D2E/DX2                !
 ! R14   R(11,13)                1.0961         estimate D2E/DX2                !
 ! R15   R(11,14)                1.0956         estimate D2E/DX2                !
 ! R16   R(12,15)                1.0945         estimate D2E/DX2                !
 ! R17   R(12,16)                1.0938         estimate D2E/DX2                !
 ! R18   R(12,17)                1.0941         estimate D2E/DX2                !
 ! R19   R(18,19)                1.5264         estimate D2E/DX2                !
 ! R20   R(18,20)                1.096          estimate D2E/DX2                !
 ! R21   R(18,21)                1.0959         estimate D2E/DX2                !
 ! R22   R(19,22)                1.0943         estimate D2E/DX2                !
 ! R23   R(19,23)                1.0949         estimate D2E/DX2                !
 ! R24   R(19,24)                1.0943         estimate D2E/DX2                !
 ! R25   R(25,26)                1.4055         estimate D2E/DX2                !
 ! R26   R(25,27)                1.3391         estimate D2E/DX2                !
 ! R27   R(26,28)                1.3853         estimate D2E/DX2                !
 ! R28   R(26,29)                1.0848         estimate D2E/DX2                !
 ! R29   R(27,30)                1.3348         estimate D2E/DX2                !
 ! R30   R(28,31)                1.3942         estimate D2E/DX2                !
 ! R31   R(28,32)                1.0865         estimate D2E/DX2                !
 ! R32   R(30,31)                1.3883         estimate D2E/DX2                !
 ! R33   R(30,33)                1.089          estimate D2E/DX2                !
 ! R34   R(31,34)                1.0845         estimate D2E/DX2                !
 ! A1    A(1,2,25)             108.764          estimate D2E/DX2                !
 ! A2    A(1,3,4)              113.6198         estimate D2E/DX2                !
 ! A3    A(1,3,11)             111.3077         estimate D2E/DX2                !
 ! A4    A(1,3,18)             113.711          estimate D2E/DX2                !
 ! A5    A(4,3,11)             106.7015         estimate D2E/DX2                !
 ! A6    A(4,3,18)             105.1242         estimate D2E/DX2                !
 ! A7    A(11,3,18)            105.7547         estimate D2E/DX2                !
 ! A8    A(3,4,5)              113.596          estimate D2E/DX2                !
 ! A9    A(3,4,6)              106.1952         estimate D2E/DX2                !
 ! A10   A(3,4,7)              108.0785         estimate D2E/DX2                !
 ! A11   A(5,4,6)              110.4281         estimate D2E/DX2                !
 ! A12   A(5,4,7)              111.2287         estimate D2E/DX2                !
 ! A13   A(6,4,7)              106.9793         estimate D2E/DX2                !
 ! A14   A(4,5,8)              110.1063         estimate D2E/DX2                !
 ! A15   A(4,5,9)              111.1842         estimate D2E/DX2                !
 ! A16   A(4,5,10)             111.7581         estimate D2E/DX2                !
 ! A17   A(8,5,9)              108.0581         estimate D2E/DX2                !
 ! A18   A(8,5,10)             107.605          estimate D2E/DX2                !
 ! A19   A(9,5,10)             107.9805         estimate D2E/DX2                !
 ! A20   A(3,11,12)            116.6249         estimate D2E/DX2                !
 ! A21   A(3,11,13)            105.3988         estimate D2E/DX2                !
 ! A22   A(3,11,14)            106.1377         estimate D2E/DX2                !
 ! A23   A(12,11,13)           110.9804         estimate D2E/DX2                !
 ! A24   A(12,11,14)           110.9562         estimate D2E/DX2                !
 ! A25   A(13,11,14)           106.055          estimate D2E/DX2                !
 ! A26   A(11,12,15)           109.6095         estimate D2E/DX2                !
 ! A27   A(11,12,16)           111.9276         estimate D2E/DX2                !
 ! A28   A(11,12,17)           111.922          estimate D2E/DX2                !
 ! A29   A(15,12,16)           107.5612         estimate D2E/DX2                !
 ! A30   A(15,12,17)           107.4581         estimate D2E/DX2                !
 ! A31   A(16,12,17)           108.1675         estimate D2E/DX2                !
 ! A32   A(3,18,19)            113.6916         estimate D2E/DX2                !
 ! A33   A(3,18,20)            106.0671         estimate D2E/DX2                !
 ! A34   A(3,18,21)            108.1318         estimate D2E/DX2                !
 ! A35   A(19,18,20)           110.5089         estimate D2E/DX2                !
 ! A36   A(19,18,21)           110.8193         estimate D2E/DX2                !
 ! A37   A(20,18,21)           107.3181         estimate D2E/DX2                !
 ! A38   A(18,19,22)           110.0222         estimate D2E/DX2                !
 ! A39   A(18,19,23)           111.1172         estimate D2E/DX2                !
 ! A40   A(18,19,24)           111.8487         estimate D2E/DX2                !
 ! A41   A(22,19,23)           108.0852         estimate D2E/DX2                !
 ! A42   A(22,19,24)           107.5445         estimate D2E/DX2                !
 ! A43   A(23,19,24)           108.0758         estimate D2E/DX2                !
 ! A44   A(2,25,26)            123.6224         estimate D2E/DX2                !
 ! A45   A(2,25,27)            114.73           estimate D2E/DX2                !
 ! A46   A(26,25,27)           121.6476         estimate D2E/DX2                !
 ! A47   A(25,26,28)           119.0009         estimate D2E/DX2                !
 ! A48   A(25,26,29)           119.99           estimate D2E/DX2                !
 ! A49   A(28,26,29)           121.0091         estimate D2E/DX2                !
 ! A50   A(25,27,30)           118.5326         estimate D2E/DX2                !
 ! A51   A(26,28,31)           119.3568         estimate D2E/DX2                !
 ! A52   A(26,28,32)           119.9586         estimate D2E/DX2                !
 ! A53   A(31,28,32)           120.6846         estimate D2E/DX2                !
 ! A54   A(27,30,31)           123.9744         estimate D2E/DX2                !
 ! A55   A(27,30,33)           115.7266         estimate D2E/DX2                !
 ! A56   A(31,30,33)           120.299          estimate D2E/DX2                !
 ! A57   A(28,31,30)           117.4876         estimate D2E/DX2                !
 ! A58   A(28,31,34)           121.8198         estimate D2E/DX2                !
 ! A59   A(30,31,34)           120.6926         estimate D2E/DX2                !
 ! A60   L(2,1,3,29,-1)        183.7283         estimate D2E/DX2                !
 ! A61   L(2,1,3,29,-2)        180.1794         estimate D2E/DX2                !
 ! D1    D(25,2,3,4)            65.1711         estimate D2E/DX2                !
 ! D2    D(25,2,3,11)         -175.1097         estimate D2E/DX2                !
 ! D3    D(25,2,3,18)          -56.501          estimate D2E/DX2                !
 ! D4    D(1,2,25,26)           -0.8074         estimate D2E/DX2                !
 ! D5    D(1,2,25,27)          179.2538         estimate D2E/DX2                !
 ! D6    D(1,3,4,5)             59.1204         estimate D2E/DX2                !
 ! D7    D(1,3,4,6)            -62.4456         estimate D2E/DX2                !
 ! D8    D(1,3,4,7)           -176.9456         estimate D2E/DX2                !
 ! D9    D(11,3,4,5)           -63.9233         estimate D2E/DX2                !
 ! D10   D(11,3,4,6)           174.5107         estimate D2E/DX2                !
 ! D11   D(11,3,4,7)            60.0107         estimate D2E/DX2                !
 ! D12   D(18,3,4,5)          -175.9318         estimate D2E/DX2                !
 ! D13   D(18,3,4,6)            62.5023         estimate D2E/DX2                !
 ! D14   D(18,3,4,7)           -51.9978         estimate D2E/DX2                !
 ! D15   D(1,3,11,12)         -178.4296         estimate D2E/DX2                !
 ! D16   D(1,3,11,13)           57.9626         estimate D2E/DX2                !
 ! D17   D(1,3,11,14)          -54.267          estimate D2E/DX2                !
 ! D18   D(4,3,11,12)          -53.9555         estimate D2E/DX2                !
 ! D19   D(4,3,11,13)         -177.5634         estimate D2E/DX2                !
 ! D20   D(4,3,11,14)           70.2071         estimate D2E/DX2                !
 ! D21   D(18,3,11,12)          57.6174         estimate D2E/DX2                !
 ! D22   D(18,3,11,13)         -65.9905         estimate D2E/DX2                !
 ! D23   D(18,3,11,14)        -178.22           estimate D2E/DX2                !
 ! D24   D(1,3,18,19)           53.1851         estimate D2E/DX2                !
 ! D25   D(1,3,18,20)          -68.4514         estimate D2E/DX2                !
 ! D26   D(1,3,18,21)          176.6965         estimate D2E/DX2                !
 ! D27   D(4,3,18,19)          -71.7055         estimate D2E/DX2                !
 ! D28   D(4,3,18,20)          166.658          estimate D2E/DX2                !
 ! D29   D(4,3,18,21)           51.8059         estimate D2E/DX2                !
 ! D30   D(11,3,18,19)         175.6156         estimate D2E/DX2                !
 ! D31   D(11,3,18,20)          53.9791         estimate D2E/DX2                !
 ! D32   D(11,3,18,21)         -60.873          estimate D2E/DX2                !
 ! D33   D(3,4,5,8)           -176.4981         estimate D2E/DX2                !
 ! D34   D(3,4,5,9)            -56.7693         estimate D2E/DX2                !
 ! D35   D(3,4,5,10)            63.9708         estimate D2E/DX2                !
 ! D36   D(6,4,5,8)            -57.3235         estimate D2E/DX2                !
 ! D37   D(6,4,5,9)             62.4054         estimate D2E/DX2                !
 ! D38   D(6,4,5,10)          -176.8546         estimate D2E/DX2                !
 ! D39   D(7,4,5,8)             61.296          estimate D2E/DX2                !
 ! D40   D(7,4,5,9)           -178.9752         estimate D2E/DX2                !
 ! D41   D(7,4,5,10)           -58.2351         estimate D2E/DX2                !
 ! D42   D(3,11,12,15)        -179.4855         estimate D2E/DX2                !
 ! D43   D(3,11,12,16)         -60.2305         estimate D2E/DX2                !
 ! D44   D(3,11,12,17)          61.3917         estimate D2E/DX2                !
 ! D45   D(13,11,12,15)        -58.7976         estimate D2E/DX2                !
 ! D46   D(13,11,12,16)         60.4574         estimate D2E/DX2                !
 ! D47   D(13,11,12,17)       -177.9204         estimate D2E/DX2                !
 ! D48   D(14,11,12,15)         58.8507         estimate D2E/DX2                !
 ! D49   D(14,11,12,16)        178.1057         estimate D2E/DX2                !
 ! D50   D(14,11,12,17)        -60.2721         estimate D2E/DX2                !
 ! D51   D(3,18,19,22)        -177.7195         estimate D2E/DX2                !
 ! D52   D(3,18,19,23)         -58.0547         estimate D2E/DX2                !
 ! D53   D(3,18,19,24)          62.8229         estimate D2E/DX2                !
 ! D54   D(20,18,19,22)        -58.5874         estimate D2E/DX2                !
 ! D55   D(20,18,19,23)         61.0774         estimate D2E/DX2                !
 ! D56   D(20,18,19,24)       -178.045          estimate D2E/DX2                !
 ! D57   D(21,18,19,22)         60.2456         estimate D2E/DX2                !
 ! D58   D(21,18,19,23)        179.9104         estimate D2E/DX2                !
 ! D59   D(21,18,19,24)        -59.212          estimate D2E/DX2                !
 ! D60   D(2,25,26,28)        -179.9368         estimate D2E/DX2                !
 ! D61   D(2,25,26,29)           0.0779         estimate D2E/DX2                !
 ! D62   D(27,25,26,28)         -0.0021         estimate D2E/DX2                !
 ! D63   D(27,25,26,29)       -179.9874         estimate D2E/DX2                !
 ! D64   D(2,25,27,30)         179.9439         estimate D2E/DX2                !
 ! D65   D(26,25,27,30)          0.0037         estimate D2E/DX2                !
 ! D66   D(25,26,28,31)         -0.0071         estimate D2E/DX2                !
 ! D67   D(25,26,28,32)        179.9992         estimate D2E/DX2                !
 ! D68   D(29,26,28,31)        179.978          estimate D2E/DX2                !
 ! D69   D(29,26,28,32)         -0.0157         estimate D2E/DX2                !
 ! D70   D(25,27,30,31)          0.0042         estimate D2E/DX2                !
 ! D71   D(25,27,30,33)        179.9927         estimate D2E/DX2                !
 ! D72   D(26,28,31,30)          0.0142         estimate D2E/DX2                !
 ! D73   D(26,28,31,34)       -179.9979         estimate D2E/DX2                !
 ! D74   D(32,28,31,30)       -179.9922         estimate D2E/DX2                !
 ! D75   D(32,28,31,34)         -0.0043         estimate D2E/DX2                !
 ! D76   D(27,30,31,28)         -0.0132         estimate D2E/DX2                !
 ! D77   D(27,30,31,34)        179.9988         estimate D2E/DX2                !
 ! D78   D(33,30,31,28)        179.9988         estimate D2E/DX2                !
 ! D79   D(33,30,31,34)          0.0107         estimate D2E/DX2                !
 --------------------------------------------------------------------------------
 Trust Radius=3.00D-01 FncErr=1.00D-07 GrdErr=1.00D-06
 Number of steps in this run=    184 maximum allowed number of steps=    204.
 GradGradGradGradGradGradGradGradGradGradGradGradGradGradGradGradGradGrad

                          Input orientation:                          
 ---------------------------------------------------------------------
 Center     Atomic      Atomic             Coordinates (Angstroms)
 Number     Number       Type             X           Y           Z
 ---------------------------------------------------------------------
      1         79           0        0.177609   -0.524154   -0.159547
      2         16           0       -1.921012   -1.548602   -0.308260
      3         15           0        2.299372    0.350191   -0.050188
      4          6           0        2.745399    0.986600    1.605843
      5          6           0        2.677035   -0.069659    2.704855
      6          1           0        2.047531    1.803892    1.817171
      7          1           0        3.746531    1.428884    1.542049
      8          1           0        2.893043    0.384217    3.676722
      9          1           0        1.681920   -0.523714    2.755939
     10          1           0        3.405898   -0.870284    2.544043
     11          6           0        3.559270   -0.904003   -0.488819
     12          6           0        5.017844   -0.461295   -0.419669
     13          1           0        3.297986   -1.237894   -1.499565
     14          1           0        3.378184   -1.760746    0.169580
     15          1           0        5.668073   -1.291941   -0.711567
     16          1           0        5.224064    0.372868   -1.096521
     17          1           0        5.305482   -0.159041    0.591789
     18          6           0        2.576724    1.753251   -1.191439
     19          6           0        1.545923    2.870276   -1.051977
     20          1           0        2.551287    1.331329   -2.202667
     21          1           0        3.589997    2.135006   -1.022641
     22          1           0        1.743866    3.656650   -1.786782
     23          1           0        0.531617    2.494410   -1.221287
     24          1           0        1.576157    3.330787   -0.059733
     25          6           0       -3.166747   -0.332819   -0.027956
     26          6           0       -2.888646    1.015828    0.253688
     27          7           0       -4.422962   -0.790602   -0.101727
     28          6           0       -3.943214    1.890282    0.459461
     29          1           0       -1.860515    1.357826    0.306905
     30          6           0       -5.426575    0.066111    0.099283
     31          6           0       -5.251188    1.413815    0.382489
     32          1           0       -3.746056    2.936152    0.678235
     33          1           0       -6.428513   -0.354557    0.028505
     34          1           0       -6.106225    2.062950    0.536555
 ---------------------------------------------------------------------
                    Distance matrix (angstroms):
                    1          2          3          4          5
     1  Au   0.000000
     2  S    2.340047   0.000000
     3  P    2.297459   4.635047   0.000000
     4  C    3.463023   5.645036   1.829315   0.000000
     5  C    3.828641   5.692817   2.812324   1.525839   0.000000
     6  H    3.581036   5.613021   2.379853   1.095283   2.166668
     7  H    4.409874   6.664091   2.406879   1.096335   2.177515
     8  H    4.787032   6.541483   3.774051   2.161759   1.094161
     9  H    3.280703   4.839507   3.003216   2.175950   1.095002
    10  H    4.225051   6.080437   3.073108   2.182773   1.094579
    11  C    3.418821   5.521014   1.831050   2.936729   3.416727
    12  C    4.847627   7.024413   2.860964   3.370921   3.923699
    13  H    3.470133   5.362246   2.370641   3.859700   4.407664
    14  H    3.446907   5.324924   2.380796   3.164045   3.127140
    15  H    5.571303   7.604127   3.805544   4.370831   4.702363
    16  H    5.210497   7.440801   3.106308   3.717959   4.597135
    17  H    5.195469   7.413716   3.115790   2.982419   3.373688
    18  C    3.465130   5.649059   1.829742   2.905338   4.302810
    19  C    3.767077   5.665619   2.814622   3.471453   4.902695
    20  H    3.640261   5.646613   2.378920   3.829003   5.105130
    21  H    4.411401   6.667123   2.407684   2.990169   4.425864
    22  H    4.751860   6.535442   3.775846   4.431945   5.910244
    23  H    3.219370   4.816114   3.015644   3.894481   5.156730
    24  H    4.102008   6.008360   3.067097   3.104269   4.518618
    25  C    3.352408   1.763109   5.508671   6.274045   6.456570
    26  C    3.456042   2.797928   5.239365   5.794104   6.177646
    27  N    4.608643   2.622398   6.818639   7.580214   7.668547
    28  C    4.816000   4.062588   6.449923   6.846048   7.260224
    29  H    2.813072   2.971433   4.295056   4.799947   5.327029
    30  C    5.641124   3.881026   7.732613   8.360513   8.513280
    31  C    5.789764   4.510335   7.637373   8.100896   8.393497
    32  H    5.298183   4.941354   6.615512   6.841067   7.375513
    33  H    6.610974   4.675117   8.756645   9.404646   9.495000
    34  H    6.831123   5.592229   8.598364   8.980710   9.294902
                    6          7          8          9         10
     6  H    0.000000
     7  H    1.761512   0.000000
     8  H    2.487629   2.525193   0.000000
     9  H    2.536278   3.090111   1.771722   0.000000
    10  H    3.086215   2.531046   1.766283   1.771189   0.000000
    11  C    3.864666   3.098686   4.410794   3.767959   3.036925
    12  C    4.353996   3.006219   4.691491   4.606167   3.398416
    13  H    4.670850   4.069928   5.439593   4.607715   4.061717
    14  H    4.146304   3.491861   4.139598   3.331188   2.536093
    15  H    5.393239   4.021691   5.455949   5.338838   3.986756
    16  H    4.541783   3.203174   5.312028   5.309623   4.254981
    17  H    3.996112   2.419675   3.953707   4.236358   2.815241
    18  C    3.055216   2.990923   5.066883   4.644032   4.639428
    19  C    3.101741   3.694490   5.509611   5.102733   5.512046
    20  H    4.078748   3.932051   5.964984   5.365143   5.301765
    21  H    3.248595   2.664722   5.063104   4.998722   4.667643
    22  H    4.063669   4.478250   6.471422   6.173783   6.481630
    23  H    3.465117   4.371160   5.832644   5.123534   5.810367
    24  H    2.465029   3.300525   4.937364   4.774555   5.270351
    25  C    5.929479   7.304925   7.138616   5.594290   7.078397
    26  C    5.237496   6.771711   6.748631   5.433371   6.958766
    27  N    7.230550   8.623731   8.317500   6.745893   8.264230
    28  C    6.143278   7.779271   7.704116   6.537838   8.122540
    29  H    4.213396   5.741916   5.907613   4.699660   6.140388
    30  C    7.863414   9.385340   9.061750   7.611597   9.212289
    31  C    7.448609   9.072142   8.845368   7.579925   9.210568
    32  H    6.012058   7.691352   7.718869   6.763908   8.313882
    33  H    8.927572  10.440450  10.037265   8.558425  10.164130
    34  H    8.257774   9.924206   9.678100   8.501276  10.154524
                   11         12         13         14         15
    11  C    0.000000
    12  C    1.525847   0.000000
    13  H    1.096066   2.174211   0.000000
    14  H    1.095577   2.173539   1.750957   0.000000
    15  H    2.155728   1.094520   2.498234   2.497957   0.000000
    16  H    2.184317   1.093839   2.542985   3.092344   1.765481
    17  H    2.184477   1.094139   3.093174   2.541298   1.764560
    18  C    2.918916   3.385101   3.092266   3.852647   4.365766
    19  C    4.314614   4.853186   4.488554   5.127938   5.867883
    20  H    2.991657   3.532207   2.766373   3.983998   4.338119
    21  H    3.085690   3.023756   3.418944   4.079600   4.019842
    22  H    5.077397   5.435568   5.143379   5.987197   6.406562
    23  H    4.610033   5.431852   4.654066   5.305074   6.401519
    24  H    4.695775   5.133678   5.090251   5.405885   6.207921
    25  C    6.765940   8.194966   6.691604   6.701800   8.912984
    26  C    6.768507   8.071424   6.813778   6.854896   8.914873
    27  N    7.992417   9.451897   7.859202   7.865918  10.121869
    28  C    8.061918   9.306092   8.127622   8.186385  10.191893
    29  H    5.926476   7.151848   6.050721   6.098222   8.046004
    30  C    9.057174  10.470595   8.965194   8.992560  11.206828
    31  C    9.151810  10.469599   9.146697   9.197240  11.302581
    32  H    8.335262   9.463297   8.472544   8.548355  10.413172
    33  H   10.016253  11.455625   9.885346   9.908006  12.155402
    34  H   10.162480  11.446881  10.172539  10.232758  12.306388
                   16         17         18         19         20
    16  H    0.000000
    17  H    1.771989   0.000000
    18  C    2.987118   3.779270   0.000000
    19  C    4.446094   5.100295   1.526350   0.000000
    20  H    3.047285   4.197115   1.096014   2.168687   0.000000
    21  H    2.404322   3.288149   1.095879   2.172492   1.765581
    22  H    4.834404   5.736044   2.161253   1.094305   2.496399
    23  H    5.151268   5.754810   2.175470   1.094878   2.528820
    24  H    4.809516   5.148907   2.184150   1.094318   3.088831
    25  C    8.487964   8.496643   6.220357   5.789447   6.339927
    26  C    8.249395   8.284827   5.701092   4.980878   5.977131
    27  N    9.767722   9.773559   7.526903   7.066300   7.586612
    28  C    9.421391   9.473944   6.727097   5.777150   7.041157
    29  H    7.289102   7.330318   4.700052   3.967100   5.075692
    30  C   10.721947  10.745711   8.280411   7.602925   8.399169
    31  C   10.630237  10.675250   7.991788   7.097865   8.220003
    32  H    9.496485   9.566506   6.698693   5.568035   7.108557
    33  H   11.729338  11.749134   9.328741   8.669407   9.405166
    34  H   11.571463  11.626149   8.858639   7.856881   9.109946
                   21         22         23         24         25
    21  H    0.000000
    22  H    2.511476   0.000000
    23  H    3.085826   1.772042   0.000000
    24  H    2.532318   1.765506   1.771948   0.000000
    25  C    7.261759   6.566845   4.805742   5.993176   0.000000
    26  C    6.697342   5.709433   4.007487   5.039021   1.405529
    27  N    8.579905   7.787633   6.049179   7.278533   1.339061
    28  C    7.681522   6.364632   4.818091   5.727833   2.404715
    29  H    5.663902   4.760218   3.057693   3.979662   2.162557
    30  C    9.318670   8.237987   6.568150   7.727978   2.298294
    31  C    8.981150   7.659427   6.097591   7.105138   2.750289
    32  H    7.573143   6.060913   4.701256   5.387605   3.394183
    33  H   10.376578   9.282932   7.623779   8.812734   3.262327
    34  H    9.821049   8.340366   6.880197   7.809095   3.833916
                   26         27         28         29         30
    26  C    0.000000
    27  N    2.396588   0.000000
    28  C    1.385325   2.780689   0.000000
    29  H    1.084826   3.368807   2.155091   0.000000
    30  C    2.714201   1.334766   2.378589   3.798476   0.000000
    31  C    2.399289   2.404138   1.394181   3.391977   1.388262
    32  H    2.145469   3.867200   1.086544   2.486818   3.375865
    33  H    3.802541   2.056534   3.376646   4.886345   1.088968
    34  H    3.395481   3.373950   2.171261   4.309988   2.154181
                   31         32         33         34
    31  C    0.000000
    32  H    2.161110   0.000000
    33  H    2.153727   4.294938   0.000000
    34  H    1.084528   2.520506   2.491250   0.000000
 Stoichiometry    C11H19AuNPS
 Framework group  C1[X(C11H19AuNPS)]
 Deg. of freedom    96
 Full point group                 C1      NOp   1
 Largest Abelian subgroup         C1      NOp   1
 Largest concise Abelian subgroup C1      NOp   1
                         Standard orientation:                         
 ---------------------------------------------------------------------
 Center     Atomic      Atomic             Coordinates (Angstroms)
 Number     Number       Type             X           Y           Z
 ---------------------------------------------------------------------
      1         79           0        0.177609   -0.524154   -0.159547
      2         16           0       -1.921012   -1.548602   -0.308260
      3         15           0        2.299372    0.350191   -0.050188
      4          6           0        2.745399    0.986600    1.605843
      5          6           0        2.677035   -0.069659    2.704855
      6          1           0        2.047531    1.803892    1.817171
      7          1           0        3.746531    1.428884    1.542049
      8          1           0        2.893043    0.384217    3.676722
      9          1           0        1.681920   -0.523714    2.755939
     10          1           0        3.405898   -0.870284    2.544043
     11          6           0        3.559270   -0.904003   -0.488819
     12          6           0        5.017844   -0.461295   -0.419669
     13          1           0        3.297986   -1.237894   -1.499565
     14          1           0        3.378184   -1.760746    0.169580
     15          1           0        5.668073   -1.291941   -0.711567
     16          1           0        5.224064    0.372868   -1.096521
     17          1           0        5.305482   -0.159041    0.591789
     18          6           0        2.576724    1.753251   -1.191439
     19          6           0        1.545923    2.870276   -1.051977
     20          1           0        2.551287    1.331329   -2.202667
     21          1           0        3.589997    2.135006   -1.022641
     22          1           0        1.743866    3.656650   -1.786782
     23          1           0        0.531617    2.494410   -1.221287
     24          1           0        1.576157    3.330787   -0.059733
     25          6           0       -3.166747   -0.332819   -0.027956
     26          6           0       -2.888646    1.015828    0.253688
     27          7           0       -4.422962   -0.790602   -0.101727
     28          6           0       -3.943214    1.890282    0.459461
     29          1           0       -1.860515    1.357826    0.306905
     30          6           0       -5.426575    0.066111    0.099283
     31          6           0       -5.251188    1.413815    0.382489
     32          1           0       -3.746056    2.936152    0.678235
     33          1           0       -6.428513   -0.354557    0.028505
     34          1           0       -6.106225    2.062950    0.536555
 ---------------------------------------------------------------------
 Rotational constants (GHZ):      0.7628356      0.1753584      0.1624031
 General basis read from cards:  (5D, 7F)
 ======================================================================================================
                                       Pseudopotential Parameters
 ======================================================================================================
  Center     Atomic      Valence      Angular      Power
  Number     Number     Electrons     Momentum     of R      Exponent        Coefficient   SO-Coeffient
 ======================================================================================================
    1         79           19
                                      G and up 
                                                     1      622.6287956      -60.00000000    0.00000000
                                                     2      136.2843607     -555.52923120    0.00000000
                                                     2       33.1549781     -168.00197850    0.00000000
                                                     2        9.9894895      -63.03998750    0.00000000
                                                     2        3.0481312       -4.25166810    0.00000000
                                      S - G
                                                     0      194.7374304        3.00000000    0.00000000
                                                     1      351.5327447       38.60208800    0.00000000
                                                     2      122.3270402      864.83707270    0.00000000
                                                     2       32.0914617      374.99355200    0.00000000
                                                     2        5.2451812      289.79101000    0.00000000
                                                     2        4.4916223     -152.45327730    0.00000000
                                      P - G
                                                     0      420.6158801        2.00000000    0.00000000
                                                     1      109.4417815       73.88856250    0.00000000
                                                     2       34.1714280      326.67298720    0.00000000
                                                     2        5.9879750      126.58145910    0.00000000
                                      D - G
                                                     0      219.2666158        3.00000000    0.00000000
                                                     1      122.7297786       55.67931490    0.00000000
                                                     2       63.1063369      449.19873350    0.00000000
                                                     2       18.3684520      215.02690910    0.00000000
                                                     2        4.4972844       64.08409950    0.00000000
                                      F - G
                                                     0      108.5506037        4.00000000    0.00000000
                                                     1       56.4795527       51.80653350    0.00000000
                                                     2       29.2069159      231.21831130    0.00000000
                                                     2        9.5440543      119.00473860    0.00000000
                                                     2        2.8965118       15.34241880    0.00000000
    2         16
                                   No pseudopotential on this center.
    3         15
                                   No pseudopotential on this center.
    4          6
                                   No pseudopotential on this center.
    5          6
                                   No pseudopotential on this center.
    6          1
                                   No pseudopotential on this center.
    7          1
                                   No pseudopotential on this center.
    8          1
                                   No pseudopotential on this center.
    9          1
                                   No pseudopotential on this center.
   10          1
                                   No pseudopotential on this center.
   11          6
                                   No pseudopotential on this center.
   12          6
                                   No pseudopotential on this center.
   13          1
                                   No pseudopotential on this center.
   14          1
                                   No pseudopotential on this center.
   15          1
                                   No pseudopotential on this center.
   16          1
                                   No pseudopotential on this center.
   17          1
                                   No pseudopotential on this center.
   18          6
                                   No pseudopotential on this center.
   19          6
                                   No pseudopotential on this center.
   20          1
                                   No pseudopotential on this center.
   21          1
                                   No pseudopotential on this center.
   22          1
                                   No pseudopotential on this center.
   23          1
                                   No pseudopotential on this center.
   24          1
                                   No pseudopotential on this center.
   25          6
                                   No pseudopotential on this center.
   26          6
                                   No pseudopotential on this center.
   27          7
                                   No pseudopotential on this center.
   28          6
                                   No pseudopotential on this center.
   29          1
                                   No pseudopotential on this center.
   30          6
                                   No pseudopotential on this center.
   31          6
                                   No pseudopotential on this center.
   32          1
                                   No pseudopotential on this center.
   33          1
                                   No pseudopotential on this center.
   34          1
                                   No pseudopotential on this center.
 ======================================================================================================
 There are   304 symmetry adapted cartesian basis functions of A   symmetry.
 There are   284 symmetry adapted basis functions of A   symmetry.
   284 basis functions,   564 primitive gaussians,   304 cartesian basis functions
    71 alpha electrons       71 beta electrons
       nuclear repulsion energy      1373.9969473770 Hartrees.
 NAtoms=   34 NActive=   34 NUniq=   34 SFac= 1.00D+00 NAtFMM=   60 NAOKFM=F Big=F
 Integral buffers will be    131072 words long.
 Raffenetti 2 integral format.
 Two-electron integral symmetry is turned on.
 One-electron integrals computed using PRISM.
   1 Symmetry operations used in ECPInt.
 ECPInt:  NShTT=    6105 NPrTT=   33235 LenC2=    5308 LenP2D=   17638.
 LDataN:  DoStor=T MaxTD1= 7 Len=  274
 NBasis=   284 RedAO= T EigKep=  9.29D-04  NBF=   284
 NBsUse=   284 1.00D-06 EigRej= -1.00D+00 NBFU=   284
 Defaulting to unpruned grid for atomic number  79.
 ExpMin= 2.79D-02 ExpMax= 2.19D+04 ExpMxC= 3.30D+03 IAcc=3 IRadAn=         5 AccDes= 0.00D+00
 Harris functional with IExCor=  402 and IRadAn=       5 diagonalized for initial guess.
 HarFok:  IExCor=  402 AccDes= 0.00D+00 IRadAn=         5 IDoV= 1 UseB2=F ITyADJ=14
 ICtDFT=  3500011 ScaDFX=  1.000000  1.000000  1.000000  1.000000
 Defaulting to unpruned grid for atomic number  79.
 Defaulting to unpruned grid for atomic number  79.
 Defaulting to unpruned grid for atomic number  79.
 Defaulting to unpruned grid for atomic number  79.
 Defaulting to unpruned grid for atomic number  79.
 Defaulting to unpruned grid for atomic number  79.
 Defaulting to unpruned grid for atomic number  79.
 Defaulting to unpruned grid for atomic number  79.
 FoFCou: FMM=F IPFlag=           0 FMFlag=      100000 FMFlg1=           0
         NFxFlg=           0 DoJE=T BraDBF=F KetDBF=T FulRan=T
         wScrn=  0.000000 ICntrl=     500 IOpCl=  0 I1Cent=   200000004 NGrid=           0
         NMat0=    1 NMatS0=      1 NMatT0=    0 NMatD0=    1 NMtDS0=    0 NMtDT0=    0
 Petite list used in FoFCou.
 Keep R1 ints in memory in canonical form, NReq=833417361.
 Requested convergence on RMS density matrix=1.00D-08 within 128 cycles.
 Requested convergence on MAX density matrix=1.00D-06.
 Requested convergence on             energy=1.00D-06.
 No special actions if energy rises.
 Defaulting to unpruned grid for atomic number  79.
 Defaulting to unpruned grid for atomic number  79.
 Defaulting to unpruned grid for atomic number  79.
 Defaulting to unpruned grid for atomic number  79.
 Defaulting to unpruned grid for atomic number  79.
 Defaulting to unpruned grid for atomic number  79.
 Defaulting to unpruned grid for atomic number  79.
 Defaulting to unpruned grid for atomic number  79.
 EnCoef did     1 forward-backward iterations
 SCF Done:  E(RB3LYP) =  -1360.45251717     A.U. after   15 cycles
            NFock= 15  Conv=0.79D-08     -V/T= 2.0768

 **********************************************************************

            Population analysis using the SCF density.

 **********************************************************************

 Orbital symmetries:
       Occupied  (A) (A) (A) (A) (A) (A) (A) (A) (A) (A) (A) (A)
                 (A) (A) (A) (A) (A) (A) (A) (A) (A) (A) (A) (A)
                 (A) (A) (A) (A) (A) (A) (A) (A) (A) (A) (A) (A)
                 (A) (A) (A) (A) (A) (A) (A) (A) (A) (A) (A) (A)
                 (A) (A) (A) (A) (A) (A) (A) (A) (A) (A) (A) (A)
                 (A) (A) (A) (A) (A) (A) (A) (A) (A) (A) (A)
       Virtual   (A) (A) (A) (A) (A) (A) (A) (A) (A) (A) (A) (A)
                 (A) (A) (A) (A) (A) (A) (A) (A) (A) (A) (A) (A)
                 (A) (A) (A) (A) (A) (A) (A) (A) (A) (A) (A) (A)
                 (A) (A) (A) (A) (A) (A) (A) (A) (A) (A) (A) (A)
                 (A) (A) (A) (A) (A) (A) (A) (A) (A) (A) (A) (A)
                 (A) (A) (A) (A) (A) (A) (A) (A) (A) (A) (A) (A)
                 (A) (A) (A) (A) (A) (A) (A) (A) (A) (A) (A) (A)
                 (A) (A) (A) (A) (A) (A) (A) (A) (A) (A) (A) (A)
                 (A) (A) (A) (A) (A) (A) (A) (A) (A) (A) (A) (A)
                 (A) (A) (A) (A) (A) (A) (A) (A) (A) (A) (A) (A)
                 (A) (A) (A) (A) (A) (A) (A) (A) (A) (A) (A) (A)
                 (A) (A) (A) (A) (A) (A) (A) (A) (A) (A) (A) (A)
                 (A) (A) (A) (A) (A) (A) (A) (A) (A) (A) (A) (A)
                 (A) (A) (A) (A) (A) (A) (A) (A) (A) (A) (A) (A)
                 (A) (A) (A) (A) (A) (A) (A) (A) (A) (A) (A) (A)
                 (A) (A) (A) (A) (A) (A) (A) (A) (A) (A) (A) (A)
                 (A) (A) (A) (A) (A) (A) (A) (A) (A) (A) (A) (A)
                 (A) (A) (A) (A) (A) (A) (A) (A) (A)
 The electronic state is 1-A.
 Alpha  occ. eigenvalues --  -88.80677 -77.12042 -14.29693 -10.21800 -10.21642
 Alpha  occ. eigenvalues --  -10.21633 -10.21554 -10.20453 -10.19854 -10.19731
 Alpha  occ. eigenvalues --  -10.19292 -10.17980 -10.16713 -10.16474  -7.88386
 Alpha  occ. eigenvalues --   -6.60165  -5.84752  -5.84286  -5.83991  -4.76307
 Alpha  occ. eigenvalues --   -4.76293  -4.76064  -4.16478  -2.31085  -2.29075
 Alpha  occ. eigenvalues --   -2.28899  -0.91767  -0.83393  -0.78991  -0.78721
 Alpha  occ. eigenvalues --   -0.77933  -0.75521  -0.69819  -0.66873  -0.65634
 Alpha  occ. eigenvalues --   -0.64689  -0.60683  -0.57762  -0.56571  -0.50058
 Alpha  occ. eigenvalues --   -0.49173  -0.48462  -0.48230  -0.46662  -0.45913
 Alpha  occ. eigenvalues --   -0.44858  -0.44128  -0.43392  -0.41455  -0.40931
 Alpha  occ. eigenvalues --   -0.40437  -0.39919  -0.39296  -0.38926  -0.38425
 Alpha  occ. eigenvalues --   -0.37802  -0.37643  -0.36371  -0.35215  -0.35153
 Alpha  occ. eigenvalues --   -0.33355  -0.32251  -0.30488  -0.30001  -0.29897
 Alpha  occ. eigenvalues --   -0.27160  -0.26900  -0.25365  -0.23349  -0.22533
 Alpha  occ. eigenvalues --   -0.17968
 Alpha virt. eigenvalues --   -0.02135  -0.01727   0.00433   0.01898   0.02422
 Alpha virt. eigenvalues --    0.03558   0.05006   0.05282   0.07409   0.08295
 Alpha virt. eigenvalues --    0.09918   0.10063   0.10275   0.11580   0.11954
 Alpha virt. eigenvalues --    0.12592   0.13389   0.13993   0.14181   0.14703
 Alpha virt. eigenvalues --    0.15152   0.15366   0.16131   0.16907   0.16955
 Alpha virt. eigenvalues --    0.17280   0.18564   0.18706   0.19296   0.19655
 Alpha virt. eigenvalues --    0.19986   0.20956   0.22228   0.23064   0.23918
 Alpha virt. eigenvalues --    0.26786   0.27367   0.30972   0.31871   0.34031
 Alpha virt. eigenvalues --    0.35313   0.36557   0.38967   0.39302   0.40243
 Alpha virt. eigenvalues --    0.41582   0.42412   0.42735   0.43267   0.45964
 Alpha virt. eigenvalues --    0.46550   0.47884   0.49241   0.51880   0.53136
 Alpha virt. eigenvalues --    0.54730   0.54828   0.55990   0.56887   0.57134
 Alpha virt. eigenvalues --    0.58106   0.58395   0.58776   0.59523   0.61067
 Alpha virt. eigenvalues --    0.61850   0.62546   0.62695   0.63329   0.63828
 Alpha virt. eigenvalues --    0.64372   0.64801   0.66176   0.68344   0.68760
 Alpha virt. eigenvalues --    0.69600   0.71602   0.72332   0.73895   0.76331
 Alpha virt. eigenvalues --    0.79586   0.81255   0.82217   0.82280   0.83168
 Alpha virt. eigenvalues --    0.84188   0.84483   0.84884   0.85270   0.85398
 Alpha virt. eigenvalues --    0.85690   0.86598   0.86651   0.87489   0.88288
 Alpha virt. eigenvalues --    0.89243   0.89566   0.91384   0.91592   0.92510
 Alpha virt. eigenvalues --    0.92722   0.93619   0.94455   0.95410   0.96125
 Alpha virt. eigenvalues --    0.96538   0.97051   0.98031   0.98620   0.99860
 Alpha virt. eigenvalues --    1.00311   1.00761   1.01728   1.02367   1.03407
 Alpha virt. eigenvalues --    1.04588   1.04991   1.06506   1.11292   1.13044
 Alpha virt. eigenvalues --    1.15468   1.18124   1.19153   1.25230   1.26510
 Alpha virt. eigenvalues --    1.27483   1.34002   1.35848   1.42895   1.47355
 Alpha virt. eigenvalues --    1.47865   1.49732   1.49904   1.50194   1.51343
 Alpha virt. eigenvalues --    1.52791   1.53470   1.54442   1.54781   1.56399
 Alpha virt. eigenvalues --    1.60397   1.65151   1.68647   1.73613   1.75352
 Alpha virt. eigenvalues --    1.81545   1.82142   1.83733   1.85517   1.87434
 Alpha virt. eigenvalues --    1.90051   1.90477   1.91753   1.94155   1.94332
 Alpha virt. eigenvalues --    1.94784   1.96018   1.96230   1.96593   1.98467
 Alpha virt. eigenvalues --    1.98935   1.99328   1.99757   2.00542   2.00882
 Alpha virt. eigenvalues --    2.01319   2.01529   2.03130   2.03463   2.08104
 Alpha virt. eigenvalues --    2.09458   2.10974   2.11952   2.15872   2.16040
 Alpha virt. eigenvalues --    2.17634   2.19508   2.20444   2.21144   2.23765
 Alpha virt. eigenvalues --    2.24410   2.25730   2.26928   2.27313   2.27869
 Alpha virt. eigenvalues --    2.30056   2.30631   2.31220   2.31489   2.32042
 Alpha virt. eigenvalues --    2.32322   2.32857   2.33288   2.35407   2.40184
 Alpha virt. eigenvalues --    2.57635   2.58096   2.59089   2.59419   2.62511
 Alpha virt. eigenvalues --    2.64622   2.69402   2.71732   2.71747   2.73822
 Alpha virt. eigenvalues --    2.80918   2.84831   3.09431   3.41098  15.59509
 Alpha virt. eigenvalues --   15.61978  15.70209  43.15162
          Condensed to atoms (all electrons):
               1          2          3          4          5          6
     1  Au  18.593190   0.306773   0.335453  -0.029708  -0.000727  -0.004457
     2  S    0.306773  15.614653  -0.000230  -0.000006  -0.000068  -0.000021
     3  P    0.335453  -0.000230  13.591373   0.319604  -0.039051  -0.033527
     4  C   -0.029708  -0.000006   0.319604   5.225341   0.364502   0.372994
     5  C   -0.000727  -0.000068  -0.039051   0.364502   5.066625  -0.027554
     6  H   -0.004457  -0.000021  -0.033527   0.372994  -0.027554   0.531177
     7  H    0.004120  -0.000001  -0.031010   0.356348  -0.032241  -0.030189
     8  H   -0.000584   0.000000   0.005022  -0.028231   0.374354  -0.004945
     9  H    0.011098  -0.000070  -0.009396  -0.033031   0.384241  -0.003199
    10  H   -0.000621  -0.000002  -0.006649  -0.038379   0.381620   0.004554
    11  C   -0.028412   0.000002   0.311260  -0.028582  -0.001472   0.002311
    12  C    0.002094   0.000000  -0.026089  -0.003775  -0.000896   0.000018
    13  H   -0.000778  -0.000024  -0.032282   0.002200   0.000046  -0.000026
    14  H   -0.000266  -0.000026  -0.030637  -0.002528   0.001491   0.000014
    15  H   -0.000074   0.000000   0.004524   0.000047  -0.000003   0.000001
    16  H    0.000519   0.000000  -0.007403  -0.000292   0.000045  -0.000012
    17  H    0.000128   0.000000  -0.007647   0.001674   0.000458   0.000016
    18  C   -0.032044  -0.000001   0.317287  -0.033809   0.001805  -0.001640
    19  C   -0.000368  -0.000041  -0.037344  -0.002294   0.000075   0.001244
    20  H   -0.002746  -0.000023  -0.029694   0.002142  -0.000030   0.000034
    21  H    0.004055  -0.000001  -0.030733  -0.004775   0.000004  -0.000284
    22  H   -0.000441   0.000000   0.004760  -0.000018   0.000000  -0.000060
    23  H    0.010870  -0.000129  -0.010595  -0.000098  -0.000006  -0.000008
    24  H   -0.000530  -0.000005  -0.005485   0.001649  -0.000020   0.003211
    25  C   -0.029242   0.312993  -0.000118   0.000000   0.000000   0.000000
    26  C    0.006455  -0.088256  -0.000047  -0.000001   0.000001  -0.000003
    27  N    0.006836  -0.060102  -0.000002   0.000000   0.000000   0.000000
    28  C    0.001232   0.005175   0.000011   0.000000   0.000000   0.000000
    29  H   -0.001111  -0.010996   0.000105  -0.000007  -0.000002   0.000009
    30  C   -0.000977   0.004445   0.000000   0.000000   0.000000   0.000000
    31  C    0.000934   0.000988   0.000000   0.000000   0.000000   0.000000
    32  H    0.001000  -0.000230   0.000001   0.000000   0.000000   0.000000
    33  H   -0.000515  -0.000382   0.000000   0.000000   0.000000   0.000000
    34  H   -0.000281   0.000022   0.000000   0.000000   0.000000   0.000000
               7          8          9         10         11         12
     1  Au   0.004120  -0.000584   0.011098  -0.000621  -0.028412   0.002094
     2  S   -0.000001   0.000000  -0.000070  -0.000002   0.000002   0.000000
     3  P   -0.031010   0.005022  -0.009396  -0.006649   0.311260  -0.026089
     4  C    0.356348  -0.028231  -0.033031  -0.038379  -0.028582  -0.003775
     5  C   -0.032241   0.374354   0.384241   0.381620  -0.001472  -0.000896
     6  H   -0.030189  -0.004945  -0.003199   0.004554   0.002311   0.000018
     7  H    0.566709  -0.003955   0.004101  -0.003834  -0.005178   0.002222
     8  H   -0.003955   0.551229  -0.026653  -0.030122   0.000009  -0.000002
     9  H    0.004101  -0.026653   0.492060  -0.028555  -0.000285   0.000026
    10  H   -0.003834  -0.030122  -0.028555   0.559699   0.001949   0.000344
    11  C   -0.005178   0.000009  -0.000285   0.001949   5.239234   0.349448
    12  C    0.002222  -0.000002   0.000026   0.000344   0.349448   5.060689
    13  H   -0.000023   0.000001  -0.000008   0.000006   0.374563  -0.032650
    14  H   -0.000171  -0.000043  -0.000101   0.001652   0.373524  -0.033451
    15  H   -0.000083   0.000000   0.000000  -0.000025  -0.029438   0.378087
    16  H    0.000026   0.000000  -0.000002  -0.000008  -0.036341   0.382322
    17  H    0.002608  -0.000013  -0.000012   0.001421  -0.036309   0.382490
    18  C   -0.002604  -0.000062   0.000026   0.000007  -0.029192  -0.004499
    19  C   -0.000168   0.000000  -0.000005  -0.000001   0.001789   0.000087
    20  H    0.000003   0.000001   0.000000   0.000000  -0.001265  -0.000215
    21  H    0.003661  -0.000003   0.000000   0.000001  -0.003167   0.001455
    22  H   -0.000006   0.000000   0.000000   0.000000  -0.000059   0.000000
    23  H    0.000006   0.000000  -0.000001   0.000000   0.000022  -0.000003
    24  H    0.000222   0.000003   0.000002   0.000001   0.000020  -0.000005
    25  C    0.000000   0.000000  -0.000001   0.000000   0.000000   0.000000
    26  C    0.000000   0.000000  -0.000001   0.000000   0.000000   0.000000
    27  N    0.000000   0.000000   0.000000   0.000000   0.000000   0.000000
    28  C    0.000000   0.000000   0.000000   0.000000   0.000000   0.000000
    29  H    0.000000   0.000000  -0.000006   0.000000   0.000000   0.000000
    30  C    0.000000   0.000000   0.000000   0.000000   0.000000   0.000000
    31  C    0.000000   0.000000   0.000000   0.000000   0.000000   0.000000
    32  H    0.000000   0.000000   0.000000   0.000000   0.000000   0.000000
    33  H    0.000000   0.000000   0.000000   0.000000   0.000000   0.000000
    34  H    0.000000   0.000000   0.000000   0.000000   0.000000   0.000000
              13         14         15         16         17         18
     1  Au  -0.000778  -0.000266  -0.000074   0.000519   0.000128  -0.032044
     2  S   -0.000024  -0.000026   0.000000   0.000000   0.000000  -0.000001
     3  P   -0.032282  -0.030637   0.004524  -0.007403  -0.007647   0.317287
     4  C    0.002200  -0.002528   0.000047  -0.000292   0.001674  -0.033809
     5  C    0.000046   0.001491  -0.000003   0.000045   0.000458   0.001805
     6  H   -0.000026   0.000014   0.000001  -0.000012   0.000016  -0.001640
     7  H   -0.000023  -0.000171  -0.000083   0.000026   0.002608  -0.002604
     8  H    0.000001  -0.000043   0.000000   0.000000  -0.000013  -0.000062
     9  H   -0.000008  -0.000101   0.000000  -0.000002  -0.000012   0.000026
    10  H    0.000006   0.001652  -0.000025  -0.000008   0.001421   0.000007
    11  C    0.374563   0.373524  -0.029438  -0.036341  -0.036309  -0.029192
    12  C   -0.032650  -0.033451   0.378087   0.382322   0.382490  -0.004499
    13  H    0.520691  -0.025149  -0.004077  -0.003011   0.004346  -0.002793
    14  H   -0.025149   0.517366  -0.003983   0.004308  -0.003410   0.002072
    15  H   -0.004077  -0.003983   0.545355  -0.029528  -0.029610   0.000042
    16  H   -0.003011   0.004308  -0.029528   0.554901  -0.030713   0.002322
    17  H    0.004346  -0.003410  -0.029610  -0.030713   0.554993  -0.000266
    18  C   -0.002793   0.002072   0.000042   0.002322  -0.000266   5.231231
    19  C    0.000014  -0.000025   0.000000  -0.000017  -0.000007   0.365704
    20  H    0.001862   0.000035  -0.000016   0.000404   0.000030   0.370632
    21  H   -0.000194  -0.000034  -0.000061   0.003196   0.000064   0.358776
    22  H   -0.000003   0.000001   0.000000   0.000004   0.000000  -0.028765
    23  H   -0.000002   0.000000   0.000000   0.000000   0.000000  -0.032423
    24  H    0.000002   0.000001   0.000000   0.000003   0.000000  -0.038564
    25  C    0.000000   0.000000   0.000000   0.000000   0.000000   0.000000
    26  C    0.000000   0.000000   0.000000   0.000000   0.000000   0.000003
    27  N    0.000000   0.000000   0.000000   0.000000   0.000000   0.000000
    28  C    0.000000   0.000000   0.000000   0.000000   0.000000   0.000000
    29  H    0.000000   0.000000   0.000000   0.000000   0.000000  -0.000021
    30  C    0.000000   0.000000   0.000000   0.000000   0.000000   0.000000
    31  C    0.000000   0.000000   0.000000   0.000000   0.000000   0.000000
    32  H    0.000000   0.000000   0.000000   0.000000   0.000000   0.000000
    33  H    0.000000   0.000000   0.000000   0.000000   0.000000   0.000000
    34  H    0.000000   0.000000   0.000000   0.000000   0.000000   0.000000
              19         20         21         22         23         24
     1  Au  -0.000368  -0.002746   0.004055  -0.000441   0.010870  -0.000530
     2  S   -0.000041  -0.000023  -0.000001   0.000000  -0.000129  -0.000005
     3  P   -0.037344  -0.029694  -0.030733   0.004760  -0.010595  -0.005485
     4  C   -0.002294   0.002142  -0.004775  -0.000018  -0.000098   0.001649
     5  C    0.000075  -0.000030   0.000004   0.000000  -0.000006  -0.000020
     6  H    0.001244   0.000034  -0.000284  -0.000060  -0.000008   0.003211
     7  H   -0.000168   0.000003   0.003661  -0.000006   0.000006   0.000222
     8  H    0.000000   0.000001  -0.000003   0.000000   0.000000   0.000003
     9  H   -0.000005   0.000000   0.000000   0.000000  -0.000001   0.000002
    10  H   -0.000001   0.000000   0.000001   0.000000   0.000000   0.000001
    11  C    0.001789  -0.001265  -0.003167  -0.000059   0.000022   0.000020
    12  C    0.000087  -0.000215   0.001455   0.000000  -0.000003  -0.000005
    13  H    0.000014   0.001862  -0.000194  -0.000003  -0.000002   0.000002
    14  H   -0.000025   0.000035  -0.000034   0.000001   0.000000   0.000001
    15  H    0.000000  -0.000016  -0.000061   0.000000   0.000000   0.000000
    16  H   -0.000017   0.000404   0.003196   0.000004   0.000000   0.000003
    17  H   -0.000007   0.000030   0.000064   0.000000   0.000000   0.000000
    18  C    0.365704   0.370632   0.358776  -0.028765  -0.032423  -0.038564
    19  C    5.064198  -0.028027  -0.033013   0.374331   0.383721   0.381217
    20  H   -0.028027   0.531676  -0.029353  -0.005131  -0.003370   0.004551
    21  H   -0.033013  -0.029353   0.563156  -0.003814   0.004008  -0.003293
    22  H    0.374331  -0.005131  -0.003814   0.551418  -0.026607  -0.030118
    23  H    0.383721  -0.003370   0.004008  -0.026607   0.496906  -0.029090
    24  H    0.381217   0.004551  -0.003293  -0.030118  -0.029090   0.558755
    25  C    0.000001   0.000000   0.000000   0.000000  -0.000008   0.000000
    26  C   -0.000069   0.000000   0.000000   0.000001  -0.000003  -0.000010
    27  N    0.000000   0.000000   0.000000   0.000000   0.000000   0.000000
    28  C   -0.000002   0.000000   0.000000   0.000000  -0.000005   0.000000
    29  H    0.000059   0.000000   0.000000  -0.000005   0.000577   0.000039
    30  C    0.000000   0.000000   0.000000   0.000000   0.000000   0.000000
    31  C    0.000000   0.000000   0.000000   0.000000   0.000000   0.000000
    32  H    0.000000   0.000000   0.000000   0.000000  -0.000002   0.000000
    33  H    0.000000   0.000000   0.000000   0.000000   0.000000   0.000000
    34  H    0.000000   0.000000   0.000000   0.000000   0.000000   0.000000
              25         26         27         28         29         30
     1  Au  -0.029242   0.006455   0.006836   0.001232  -0.001111  -0.000977
     2  S    0.312993  -0.088256  -0.060102   0.005175  -0.010996   0.004445
     3  P   -0.000118  -0.000047  -0.000002   0.000011   0.000105   0.000000
     4  C    0.000000  -0.000001   0.000000   0.000000  -0.000007   0.000000
     5  C    0.000000   0.000001   0.000000   0.000000  -0.000002   0.000000
     6  H    0.000000  -0.000003   0.000000   0.000000   0.000009   0.000000
     7  H    0.000000   0.000000   0.000000   0.000000   0.000000   0.000000
     8  H    0.000000   0.000000   0.000000   0.000000   0.000000   0.000000
     9  H   -0.000001  -0.000001   0.000000   0.000000  -0.000006   0.000000
    10  H    0.000000   0.000000   0.000000   0.000000   0.000000   0.000000
    11  C    0.000000   0.000000   0.000000   0.000000   0.000000   0.000000
    12  C    0.000000   0.000000   0.000000   0.000000   0.000000   0.000000
    13  H    0.000000   0.000000   0.000000   0.000000   0.000000   0.000000
    14  H    0.000000   0.000000   0.000000   0.000000   0.000000   0.000000
    15  H    0.000000   0.000000   0.000000   0.000000   0.000000   0.000000
    16  H    0.000000   0.000000   0.000000   0.000000   0.000000   0.000000
    17  H    0.000000   0.000000   0.000000   0.000000   0.000000   0.000000
    18  C    0.000000   0.000003   0.000000   0.000000  -0.000021   0.000000
    19  C    0.000001  -0.000069   0.000000  -0.000002   0.000059   0.000000
    20  H    0.000000   0.000000   0.000000   0.000000   0.000000   0.000000
    21  H    0.000000   0.000000   0.000000   0.000000   0.000000   0.000000
    22  H    0.000000   0.000001   0.000000   0.000000  -0.000005   0.000000
    23  H   -0.000008  -0.000003   0.000000  -0.000005   0.000577   0.000000
    24  H    0.000000  -0.000010   0.000000   0.000000   0.000039   0.000000
    25  C    4.862279   0.485954   0.445937  -0.021057  -0.044991  -0.065810
    26  C    0.485954   4.994566  -0.033259   0.523837   0.356416  -0.039692
    27  N    0.445937  -0.033259   6.618307  -0.043785   0.004878   0.510138
    28  C   -0.021057   0.523837  -0.043785   4.858308  -0.050281  -0.028426
    29  H   -0.044991   0.356416   0.004878  -0.050281   0.592940   0.000438
    30  C   -0.065810  -0.039692   0.510138  -0.028426   0.000438   4.765375
    31  C   -0.038012  -0.029317  -0.037626   0.541090   0.005552   0.507894
    32  H    0.004996  -0.045830  -0.000075   0.361552  -0.006864   0.004989
    33  H    0.005512   0.000959  -0.050800   0.003218   0.000031   0.374113
    34  H    0.000290   0.005547   0.004840  -0.045280  -0.000093  -0.035497
              31         32         33         34
     1  Au   0.000934   0.001000  -0.000515  -0.000281
     2  S    0.000988  -0.000230  -0.000382   0.000022
     3  P    0.000000   0.000001   0.000000   0.000000
     4  C    0.000000   0.000000   0.000000   0.000000
     5  C    0.000000   0.000000   0.000000   0.000000
     6  H    0.000000   0.000000   0.000000   0.000000
     7  H    0.000000   0.000000   0.000000   0.000000
     8  H    0.000000   0.000000   0.000000   0.000000
     9  H    0.000000   0.000000   0.000000   0.000000
    10  H    0.000000   0.000000   0.000000   0.000000
    11  C    0.000000   0.000000   0.000000   0.000000
    12  C    0.000000   0.000000   0.000000   0.000000
    13  H    0.000000   0.000000   0.000000   0.000000
    14  H    0.000000   0.000000   0.000000   0.000000
    15  H    0.000000   0.000000   0.000000   0.000000
    16  H    0.000000   0.000000   0.000000   0.000000
    17  H    0.000000   0.000000   0.000000   0.000000
    18  C    0.000000   0.000000   0.000000   0.000000
    19  C    0.000000   0.000000   0.000000   0.000000
    20  H    0.000000   0.000000   0.000000   0.000000
    21  H    0.000000   0.000000   0.000000   0.000000
    22  H    0.000000   0.000000   0.000000   0.000000
    23  H    0.000000  -0.000002   0.000000   0.000000
    24  H    0.000000   0.000000   0.000000   0.000000
    25  C   -0.038012   0.004996   0.005512   0.000290
    26  C   -0.029317  -0.045830   0.000959   0.005547
    27  N   -0.037626  -0.000075  -0.050800   0.004840
    28  C    0.541090   0.361552   0.003218  -0.045280
    29  H    0.005552  -0.006864   0.000031  -0.000093
    30  C    0.507894   0.004989   0.374113  -0.035497
    31  C    4.956983  -0.046034  -0.069814   0.350424
    32  H   -0.046034   0.606832  -0.000197  -0.006075
    33  H   -0.069814  -0.000197   0.609223  -0.001852
    34  H    0.350424  -0.006075  -0.001852   0.605540
 Mulliken charges:
               1
     1  Au  -0.150876
     2  S   -0.084434
     3  P    0.448540
     4  C   -0.440967
     5  C   -0.473198
     6  H    0.190342
     7  H    0.169436
     8  H    0.163995
     9  H    0.209773
    10  H    0.156941
    11  C   -0.454431
    12  C   -0.457698
    13  H    0.197289
    14  H    0.199362
    15  H    0.168842
    16  H    0.159277
    17  H    0.159759
    18  C   -0.443222
    19  C   -0.471061
    20  H    0.188503
    21  H    0.170349
    22  H    0.164511
    23  H    0.206237
    24  H    0.157447
    25  C    0.081277
    26  C   -0.137251
    27  N   -0.365289
    28  C   -0.105588
    29  H    0.153332
    30  C    0.003010
    31  C   -0.143062
    32  H    0.125937
    33  H    0.130505
    34  H    0.122415
 Sum of Mulliken charges =   0.00000
 Mulliken charges with hydrogens summed into heavy atoms:
               1
     1  Au  -0.150876
     2  S   -0.084434
     3  P    0.448540
     4  C   -0.081190
     5  C    0.057510
    11  C   -0.057779
    12  C    0.030180
    18  C   -0.084371
    19  C    0.057134
    25  C    0.081277
    26  C    0.016081
    27  N   -0.365289
    28  C    0.020349
    30  C    0.133515
    31  C   -0.020647
 Electronic spatial extent (au):  <R**2>=           6797.9300
 Charge=              0.0000 electrons
 Dipole moment (field-independent basis, Debye):
    X=              9.3386    Y=              5.3553    Z=              0.9168  Tot=             10.8041
 Quadrupole moment (field-independent basis, Debye-Ang):
   XX=           -112.1548   YY=           -123.8879   ZZ=           -123.1398
   XY=            -10.5140   XZ=             -2.7383   YZ=             -0.4547
 Traceless Quadrupole moment (field-independent basis, Debye-Ang):
   XX=              7.5727   YY=             -4.1604   ZZ=             -3.4123
   XY=            -10.5140   XZ=             -2.7383   YZ=             -0.4547
 Octapole moment (field-independent basis, Debye-Ang**2):
  XXX=             88.1502  YYY=            -36.5504  ZZZ=            -16.1663  XYY=             33.8930
  XXY=             21.1660  XXZ=              1.5295  XZZ=             35.9569  YZZ=            -15.8275
  YYZ=             -5.2650  XYZ=             -0.9118
 Hexadecapole moment (field-independent basis, Debye-Ang**3):
 XXXX=          -6788.2450 YYYY=          -1277.3134 ZZZZ=           -751.6309 XXXY=           -200.6308
 XXXZ=            -59.1591 YYYX=            -61.0515 YYYZ=              7.7330 ZZZX=             11.1707
 ZZZY=              6.2835 XXYY=          -1417.2613 XXZZ=          -1356.7962 YYZZ=           -341.4756
 XXYZ=             14.8673 YYXZ=            -24.6366 ZZXY=              9.7845
 N-N= 1.373996947377D+03 E-N=-5.912245236284D+03  KE= 1.263410663382D+03
   1 Symmetry operations used in ECPInt.
 ECPInt:  NShTT=    6105 NPrTT=   33235 LenC2=    5308 LenP2D=   17638.
 LDataN:  DoStor=T MaxTD1= 8 Len=  415
 Calling FoFJK, ICntrl=      2127 FMM=F ISym2X=0 I1Cent= 0 IOpClX= 0 NMat=1 NMatS=1 NMatT=0.
 Defaulting to unpruned grid for atomic number  79.
 Defaulting to unpruned grid for atomic number  79.
 Defaulting to unpruned grid for atomic number  79.
 Defaulting to unpruned grid for atomic number  79.
 Defaulting to unpruned grid for atomic number  79.
 Defaulting to unpruned grid for atomic number  79.
 Defaulting to unpruned grid for atomic number  79.
 Defaulting to unpruned grid for atomic number  79.
 ***** Axes restored to original set *****
 -------------------------------------------------------------------
 Center     Atomic                   Forces (Hartrees/Bohr)
 Number     Number              X              Y              Z
 -------------------------------------------------------------------
      1       79          -0.005258057   -0.001547628   -0.000341469
      2       16           0.006581984   -0.008777284   -0.001921998
      3       15          -0.011880924   -0.005327557   -0.000305852
      4        6           0.003505652    0.005212642    0.001957407
      5        6          -0.000514686   -0.001656623    0.003286818
      6        1          -0.000175968    0.000383910    0.000866202
      7        1           0.000987975    0.000993576    0.001705219
      8        1           0.000178552   -0.000186877    0.000886488
      9        1           0.000018813   -0.000156752    0.000181492
     10        1           0.000337940   -0.000601210    0.000248184
     11        6           0.002073561   -0.003720253   -0.001331685
     12        6           0.003632464   -0.000986995   -0.000423186
     13        1           0.000430940   -0.001034507   -0.000348990
     14        1           0.000330188   -0.000789776   -0.000427090
     15        1           0.001333665    0.000053793   -0.000105710
     16        1           0.000602831    0.000502781   -0.000365664
     17        1           0.000527562    0.000224413    0.000475456
     18        6           0.005189565    0.001912955   -0.003217592
     19        6          -0.002276982    0.002752120   -0.000901580
     20        1          -0.000131121    0.000648355   -0.000934774
     21        1           0.000972901    0.001589215   -0.001251655
     22        1          -0.000305577    0.000858662   -0.000237577
     23        1          -0.000075599    0.000228991   -0.000124713
     24        1          -0.000158391    0.000504275    0.000592673
     25        6          -0.002337378    0.004058032    0.000862287
     26        6           0.001596297    0.003230403    0.000628973
     27        7          -0.000506028   -0.003788074   -0.000780477
     28        6           0.000701051    0.002993355    0.000575444
     29        1          -0.000186680    0.000485054    0.000196186
     30        6          -0.001525965   -0.001997464   -0.000384810
     31        6          -0.002590691    0.002858363    0.000676708
     32        1          -0.000038977    0.000925106    0.000207292
     33        1          -0.000483642   -0.000588450   -0.000114027
     34        1          -0.000555275    0.000743449    0.000172020
 -------------------------------------------------------------------
 Cartesian Forces:  Max     0.011880924 RMS     0.002376067

 GradGradGradGradGradGradGradGradGradGradGradGradGradGradGradGradGradGrad
 Berny optimization.
 FormGI is forming the generalized inverse of G from B-inverse, IUseBI=4.
 Internal  Forces:  Max     0.010786834 RMS     0.002109293
 Search for a local minimum.
 Step number   1 out of a maximum of  184
 All quantities printed in internal units (Hartrees-Bohrs-Radians)
 Mixed Optimization -- RFO/linear search
 Second derivative matrix not updated -- first step.
 ITU=  0
     Eigenvalues ---    0.00230   0.00230   0.00230   0.00417   0.00424
     Eigenvalues ---    0.00424   0.00754   0.00771   0.00776   0.00858
     Eigenvalues ---    0.01888   0.02118   0.02169   0.02201   0.02235
     Eigenvalues ---    0.02240   0.02340   0.02454   0.03359   0.03645
     Eigenvalues ---    0.03647   0.04820   0.04941   0.04945   0.05381
     Eigenvalues ---    0.05464   0.05475   0.05513   0.05642   0.05650
     Eigenvalues ---    0.05680   0.05769   0.06514   0.08623   0.08626
     Eigenvalues ---    0.09146   0.12356   0.12357   0.12706   0.15355
     Eigenvalues ---    0.15874   0.16000   0.16000   0.16000   0.16000
     Eigenvalues ---    0.16000   0.16000   0.16000   0.16000   0.16000
     Eigenvalues ---    0.16000   0.16000   0.16000   0.16000   0.18629
     Eigenvalues ---    0.20942   0.21943   0.21958   0.21966   0.22000
     Eigenvalues ---    0.22421   0.23816   0.23907   0.23937   0.24425
     Eigenvalues ---    0.25000   0.25000   0.29252   0.29763   0.29810
     Eigenvalues ---    0.29811   0.34091   0.34121   0.34127   0.34142
     Eigenvalues ---    0.34176   0.34209   0.34241   0.34255   0.34289
     Eigenvalues ---    0.34295   0.34318   0.34320   0.34336   0.34339
     Eigenvalues ---    0.34373   0.34932   0.35215   0.35417   0.35453
     Eigenvalues ---    0.42041   0.44782   0.46281   0.47609   0.55566
     Eigenvalues ---    0.57206
 RFO step:  Lambda=-3.77921776D-03 EMin= 2.30000000D-03
 Linear search not attempted -- first point.
 Maximum step size (   0.300) exceeded in Quadratic search.
    -- Step size scaled by   0.850
 Iteration  1 RMS(Cart)=  0.19984010 RMS(Int)=  0.00971657
 Iteration  2 RMS(Cart)=  0.10759568 RMS(Int)=  0.00181240
 Iteration  3 RMS(Cart)=  0.00547822 RMS(Int)=  0.00066721
 Iteration  4 RMS(Cart)=  0.00000528 RMS(Int)=  0.00066721
 Iteration  5 RMS(Cart)=  0.00000002 RMS(Int)=  0.00066721
 Variable       Old X    -DE/DX   Delta X   Delta X   Delta X     New X
                                 (Linear)    (Quad)   (Total)
    R1        4.42205  -0.00065   0.00000  -0.00293  -0.00303   4.41902
    R2        4.34157   0.00480   0.00000   0.01914   0.01924   4.36081
    R3        3.33179   0.01066   0.00000   0.03058   0.03058   3.36237
    R4        3.45691   0.01071   0.00000   0.03745   0.03745   3.49436
    R5        3.46018   0.01069   0.00000   0.03755   0.03755   3.49773
    R6        3.45771   0.01079   0.00000   0.03776   0.03776   3.49547
    R7        2.88342   0.00513   0.00000   0.01443   0.01443   2.89785
    R8        2.06979   0.00057   0.00000   0.00139   0.00139   2.07118
    R9        2.07177   0.00120   0.00000   0.00297   0.00297   2.07474
   R10        2.06766   0.00074   0.00000   0.00182   0.00182   2.06949
   R11        2.06925   0.00006   0.00000   0.00015   0.00015   2.06940
   R12        2.06845   0.00063   0.00000   0.00154   0.00154   2.07000
   R13        2.88343   0.00575   0.00000   0.01620   0.01620   2.89963
   R14        2.07126   0.00053   0.00000   0.00132   0.00132   2.07258
   R15        2.07034   0.00031   0.00000   0.00075   0.00075   2.07109
   R16        2.06834   0.00078   0.00000   0.00191   0.00191   2.07025
   R17        2.06706   0.00072   0.00000   0.00177   0.00177   2.06882
   R18        2.06762   0.00064   0.00000   0.00157   0.00157   2.06920
   R19        2.88438   0.00502   0.00000   0.01417   0.01417   2.89855
   R20        2.07117   0.00061   0.00000   0.00151   0.00151   2.07268
   R21        2.07091   0.00126   0.00000   0.00311   0.00311   2.07402
   R22        2.06794   0.00072   0.00000   0.00177   0.00177   2.06970
   R23        2.06902   0.00001   0.00000   0.00002   0.00002   2.06904
   R24        2.06796   0.00075   0.00000   0.00183   0.00183   2.06980
   R25        2.65607   0.00643   0.00000   0.01219   0.01219   2.66826
   R26        2.53046   0.00293   0.00000   0.00433   0.00433   2.53479
   R27        2.61789   0.00387   0.00000   0.00682   0.00682   2.62470
   R28        2.05002  -0.00001   0.00000  -0.00003  -0.00003   2.04999
   R29        2.52234   0.00284   0.00000   0.00407   0.00407   2.52641
   R30        2.63462   0.00336   0.00000   0.00604   0.00604   2.64066
   R31        2.05327   0.00092   0.00000   0.00221   0.00221   2.05548
   R32        2.62344   0.00468   0.00000   0.00822   0.00822   2.63165
   R33        2.05785   0.00068   0.00000   0.00164   0.00164   2.05949
   R34        2.04946   0.00091   0.00000   0.00215   0.00215   2.05161
    A1        1.89829   0.00154   0.00000   0.00515   0.00515   1.90344
    A2        1.98304   0.00048   0.00000   0.00662   0.00644   1.98948
    A3        1.94269   0.00046   0.00000   0.00628   0.00655   1.94923
    A4        1.98463   0.00057   0.00000   0.00563   0.00540   1.99003
    A5        1.86229  -0.00028   0.00000  -0.00457  -0.00416   1.85813
    A6        1.83476  -0.00069   0.00000  -0.00787  -0.00950   1.82526
    A7        1.84577  -0.00071   0.00000  -0.00826  -0.00694   1.83883
    A8        1.98262   0.00109   0.00000   0.00595   0.00595   1.98857
    A9        1.85346  -0.00008   0.00000   0.00092   0.00095   1.85440
   A10        1.88633   0.00096   0.00000   0.01264   0.01265   1.89897
   A11        1.92733  -0.00072   0.00000  -0.00806  -0.00809   1.91925
   A12        1.94131  -0.00119   0.00000  -0.00644  -0.00653   1.93478
   A13        1.86714  -0.00004   0.00000  -0.00502  -0.00509   1.86205
   A14        1.92172   0.00065   0.00000   0.00351   0.00350   1.92522
   A15        1.94053   0.00013   0.00000   0.00067   0.00067   1.94120
   A16        1.95055   0.00035   0.00000   0.00168   0.00167   1.95222
   A17        1.88597  -0.00037   0.00000  -0.00168  -0.00168   1.88429
   A18        1.87806  -0.00052   0.00000  -0.00268  -0.00268   1.87538
   A19        1.88462  -0.00030   0.00000  -0.00181  -0.00181   1.88281
   A20        2.03549   0.00243   0.00000   0.01158   0.01157   2.04705
   A21        1.83956  -0.00022   0.00000   0.00334   0.00335   1.84291
   A22        1.85245  -0.00038   0.00000   0.00203   0.00204   1.85449
   A23        1.93697  -0.00104   0.00000  -0.00558  -0.00563   1.93134
   A24        1.93655  -0.00093   0.00000  -0.00507  -0.00512   1.93144
   A25        1.85101   0.00001   0.00000  -0.00738  -0.00741   1.84360
   A26        1.91305   0.00140   0.00000   0.00777   0.00776   1.92080
   A27        1.95350   0.00032   0.00000   0.00138   0.00138   1.95488
   A28        1.95341   0.00018   0.00000   0.00071   0.00071   1.95412
[...]
 01767,-0.00000173,0.00000123,-0.00000573,-0.00000739,0.00000380,-0.000
 00263,-0.00000331,-0.00000388,-0.00008619,-0.00000078,-0.00004568,-0.0
 0004609,-0.00000221,0.00003175,0.00001479,-0.00001222,-0.00001086,0.00
 000985,-0.00005743,0.00003438,0.00002309,-0.00002002,-0.00001043,-0.00
 003055,0.00004781,0.00004046,-0.00004522,-0.00002318,-0.00002792,-0.02
 627884,-0.00063481,-0.00905514,-0.04865411,-0.06596986,-0.03071231,-0.
 00162661,-0.00424334,-0.00551309,0.01974289,0.00840651,0.00917544,0.05
 139016,0.06483873,0.00020904,-0.00075344,-0.00028780,0.00089942,0.0006
 8329,-0.00092939,0.00051333,0.00023290,0.00017564,-0.00005181,0.000009
 03,0.00001824,-0.00002951,-0.00005411,-0.00001096,-0.00001095,0.000000
 25,0.00002327,-0.00001252,-0.00000365,-0.00004015,-0.00001861,0.000002
 53,-0.00002620,0.00000541,0.00002167,0.00003780,0.00001967,0.00000573,
 -0.00000413,-0.00007796,-0.00006713,-0.00004092,0.00000526,0.00003848,
 0.00001466,0.00002563,-0.00001492,-0.00002263,0.00001414,-0.00000017,0
 .00001197,-0.00002288,0.00000075,0.00000053,-0.00000009,-0.00000723,-0
 .00000225,-0.00000908,-0.00000890,-0.00000730,-0.00007261,-0.00005267,
 -0.00004131,0.00012249,0.00005719,0.00005704,0.00000498,0.00002008,-0.
 00000900,-0.00003554,0.00000320,0.00001344,-0.00004988,-0.00001712,0.0
 0001161,0.00006410,-0.00002283,-0.00010862,0.00000916,0.00000680,0.000
 00156,-0.01356211,0.00091871,-0.00361621,-0.10686370,-0.03135862,-0.08
 471574,-0.00183382,-0.00538602,0.00351510,0.00351504,0.00014146,0.0038
 3380,0.11585227,0.03646090,0.07955021,-0.00061766,0.00014573,-0.000842
 94,0.00283374,-0.00300889,-0.00109177,-0.00046505,-0.00030056,0.000307
 58,0.00031025,0.00007261,-0.00010647,-0.00002558,0.00004435,-0.0000070
 7,-0.00001328,-0.00000804,-0.00000691,0.00005664,0.00005891,0.00012457
 ,0.00002337,0.00000780,0.00003300,0.00000447,-0.00000736,-0.00005229,0
 .00000164,-0.00000943,-0.00000796,0.00014708,0.00016778,0.00000827,0.0
 0000432,-0.00011007,-0.00003272,-0.00001231,0.00000938,0.00000639,-0.0
 0001435,0.00001650,0.00000093,0.00005606,-0.00000171,-0.00000596,-0.00
 000215,0.00001764,-0.00000235,-0.00000150,0.00001426,0.00001029,0.0001
 5192,0.00002162,0.00005765,0.00001120,-0.00001261,-0.00003152,-0.00002
 801,-0.00001181,0.00001594,0.00002500,0.00007873,-0.00004714,0.0000023
 2,0.00003166,-0.00001553,0.00002717,-0.00004599,-0.00000106,0.00001478
 ,0.00000061,0.00002471,-0.08840755,0.00597604,-0.02477348,-0.00990378,
 0.02498809,0.01138192,-0.24172571,0.13177092,0.00616779,0.02276715,-0.
 03461193,-0.01089791,0.00065829,0.00167204,0.00094805,0.70057223,-0.00
 000253,-0.00052461,-0.00031484,-0.00188910,0.00046776,-0.00386656,-0.0
 0008999,0.00018161,0.00006923,0.00009045,0.00003738,-0.00000308,0.0000
 0820,0.00000894,-0.00000982,-0.00001034,-0.00002381,-0.00001904,0.0000
 2915,0.00000562,0.00003518,-0.00000917,-0.00000482,0.00000354,-0.00001
 228,0.00001131,0.00000411,0.00000995,-0.00000780,-0.00000102,-0.000001
 65,0.00000484,-0.00000005,-0.00000611,-0.00001009,0.00000753,-0.000010
 16,-0.00000021,0.00001284,-0.00000161,-0.00000723,-0.00000262,0.000010
 64,-0.00000331,-0.00000160,-0.00000211,0.00000364,0.00000245,0.0000004
 6,0.00000506,-0.00000032,0.00000946,-0.00001274,0.00000287,-0.00003306
 ,-0.00002327,0.00000530,0.00000944,0.00000583,-0.00000670,0.00000825,-
 0.00001146,-0.00000034,0.00000472,0.00000328,-0.00000283,-0.00001152,0
 .00002763,0.00002464,-0.00001462,-0.00001075,-0.00001353,0.04989821,0.
 04211249,0.03343146,0.01683660,-0.05831214,-0.01801840,0.10691080,-0.2
 0882879,-0.03423659,-0.08062522,0.00355424,-0.02646135,0.00019677,-0.0
 0169537,-0.00033230,-0.02591030,0.59684045,-0.00044899,0.00024886,0.00
 105647,-0.00062293,-0.00438175,0.00268651,-0.00035743,-0.00028221,-0.0
 0039337,-0.00009004,-0.00002424,0.00003204,-0.00001893,-0.00000566,0.0
 0001848,-0.00000468,-0.00000608,0.00000627,-0.00000022,-0.00000543,-0.
 00003606,0.00000820,0.00000972,0.00000294,0.00000832,0.00000720,-0.000
 01916,0.00000393,-0.00000260,-0.00000572,0.00005836,0.00003249,0.00001
 568,0.00000011,-0.00002657,-0.00000433,-0.00000247,0.00001026,0.000006
 78,-0.00000604,0.00000837,-0.00000110,0.00001526,-0.00000102,-0.000000
 20,-0.00000032,0.00000630,-0.00000101,0.00000095,0.00000214,0.00000245
 ,0.00009387,0.00004371,0.00003275,0.00000355,-0.00000443,-0.00001192,-
 0.00000970,-0.00001423,0.00001479,0.00001600,0.00004165,-0.00001152,0.
 00000240,0.00000957,-0.00000293,0.00000556,-0.00001304,0.00000877,-0.0
 0000129,0.00000040,0.00000160,-0.00462472,0.02053384,0.01080571,0.0073
 4038,-0.01629290,-0.01267365,-0.00473522,-0.02720391,-0.07608354,-0.03
 326858,-0.01188458,-0.00847552,0.00030765,-0.00030306,-0.00002007,0.14
 985567,0.19180514,0.28419868,0.00038276,0.00047670,0.00051610,-0.00354
 180,0.00419565,0.00114089,0.00083634,0.00033790,-0.00009544,-0.0003010
 7,-0.00007804,0.00009947,0.00002918,-0.00003987,-0.00000091,0.00002146
 ,0.00001636,0.00000967,-0.00006274,-0.00005205,-0.00012281,-0.00002679
 ,-0.00000776,-0.00003384,-0.00000111,0.00000213,0.00005915,-0.00000355
 ,0.00000751,0.00000929,-0.00015473,-0.00016904,-0.00000678,-0.00000368
 ,0.00010942,0.00002143,0.00001968,-0.00000992,-0.00002193,0.00002409,-
 0.00001672,0.00000237,-0.00005687,0.00000113,0.00000558,-0.00000113,-0
 .00001949,0.00000299,-0.00000241,-0.00001508,-0.00000968,-0.00020767,-
 0.00002497,-0.00009121,-0.00002465,0.00000755,0.00004999,0.00001815,0.
 00000409,-0.00001897,-0.00001792,-0.00010363,0.00006316,-0.00000872,-0
 .00004507,0.00001592,-0.00002100,0.00006460,-0.00002447,-0.00000913,0.
 00000350,-0.00001967,-0.02226527,-0.02795786,-0.01671709,-0.04953267,0
 .04182058,0.00161769,0.04002118,0.01882202,0.01334911,-0.29214883,-0.0
 6693853,-0.10168840,-0.00010592,0.00392001,-0.00098581,-0.13299468,0.0
 1448822,-0.01290021,0.68519680,-0.00005160,-0.00001558,-0.00008297,0.0
 0218156,0.00063875,0.00174252,-0.00009289,-0.00015625,0.00007816,0.000
 10160,0.00001996,-0.00004808,-0.00000971,0.00001507,0.00000411,0.00000
 252,0.00001411,0.00000963,0.00000718,0.00001990,0.00004098,0.00001634,
 0.00000169,0.00000916,0.00000634,-0.00001388,-0.00002054,-0.00000831,0
 .00000625,-0.00000020,0.00004756,0.00005653,-0.00000331,0.00000354,-0.
 00002536,-0.00001003,-0.00000261,0.00000238,-0.00000094,-0.00000771,0.
 00000922,0.00000010,0.00000869,0.00000428,-0.00000025,0.00000301,0.000
 00258,-0.00000342,0.00000206,0.00000098,0.00000297,0.00006498,0.000007
 97,0.00003350,0.00005090,0.00002405,-0.00002787,-0.00001332,0.00000126
 ,0.00001058,-0.00000870,0.00004630,-0.00002637,-0.00000562,0.00001366,
 -0.00000069,0.00001787,-0.00005413,-0.00002334,0.00002391,0.00000820,0
 .00002253,-0.03972609,-0.03404612,-0.02327023,0.00230007,0.04988053,0.
 02117569,0.07710494,-0.04565047,-0.00933345,-0.00819458,-0.13052313,-0
 .03544468,0.00505775,-0.00098465,-0.00304179,-0.04915697,-0.28097198,-
 0.11054239,-0.10452488,0.61420612,0.00007167,0.00007245,0.00002893,-0.
 00005411,0.00183921,0.00057906,0.00028699,0.00009972,0.00003516,-0.000
 03868,-0.00001629,0.00001404,0.00000857,-0.00000111,-0.00000163,0.0000
 0907,0.00001297,0.00000372,-0.00001770,-0.00000608,-0.00001604,-0.0000
 0008,-0.00000236,-0.00000431,-0.00000038,-0.00000717,0.00000772,-0.000
 00526,0.00000379,0.00000315,-0.00003736,-0.00003832,-0.00000125,0.0000
 0171,0.00002457,-0.00000038,0.00000922,-0.00000132,-0.00000903,0.00001
 014,-0.00000289,0.00000266,-0.00001451,0.00000161,0.00000140,-0.000000
 95,-0.00000639,0.00000096,-0.00000101,-0.00000402,-0.00000137,-0.00004
 440,-0.00000870,-0.00001337,0.00000712,0.00000336,0.00001169,0.0000000
 9,0.00000370,-0.00000227,-0.00000626,-0.00002012,0.00001041,-0.0000141
 7,-0.00001536,0.00000855,-0.00000422,0.00001410,-0.00002986,0.00000902
 ,0.00000761,0.00000412,-0.02172849,-0.01958707,-0.02538579,-0.01597257
 ,0.03281468,0.01645516,0.04072712,-0.02574206,0.02249107,-0.07446661,-
 0.05329823,-0.10610632,-0.00059514,-0.00318390,0.00664300,-0.04271009,
 -0.09210932,-0.11860945,0.12426375,0.19266117,0.24326978,0.00012121,-0
 .00001283,-0.00004737,-0.00012572,0.00074800,0.00045929,0.00003482,0.0
 0007692,0.00002543,-0.00002694,0.00000184,0.00001226,0.00000320,-0.000
 00478,-0.00000445,-0.00000642,-0.00000913,-0.00000430,0.00000048,-0.00
 000598,-0.00001048,-0.00000505,0.00000116,-0.00000193,-0.00000120,0.00
 000749,0.00000481,0.00000495,-0.00000422,0.00000057,-0.00002244,-0.000
 02225,-0.00000203,-0.00000271,0.00000728,0.00000174,0.00000408,-0.0000
 0089,-0.00000130,0.00000501,-0.00000158,0.00000021,-0.00000186,-0.0000
 0204,-0.00000033,-0.00000182,-0.00000040,0.00000146,-0.00000201,0.0000
 0029,-0.00000090,-0.00001471,0.00000148,-0.00001859,-0.00001177,-0.000
 00819,0.00001636,0.00000560,-0.00000558,-0.00000433,0.00000681,-0.0000
 1485,0.00000832,0.00000704,-0.00000472,-0.00000569,-0.00000335,0.00002
 537,0.00002331,-0.00002308,-0.00000978,-0.00001236,-0.00257394,0.00397
 044,-0.00184971,0.00810993,0.02197501,0.01155894,-0.00067626,-0.000088
 40,0.00085886,-0.06515332,-0.03218765,-0.02308009,0.00058508,-0.001071
 06,0.00104342,-0.00510510,0.00044797,-0.00380905,0.00204208,-0.0266523
 1,-0.01295102,0.06212164,-0.00021241,-0.00004782,0.00001307,0.00017058
 ,-0.00075773,-0.00019646,-0.00017255,-0.00011733,-0.00002613,0.0000758
 4,0.00001227,-0.00002642,-0.00000678,0.00001471,0.00000308,-0.00000108
 ,0.00000392,-0.00000183,0.00001150,0.00001373,0.00003194,0.00001344,0.
 00000138,0.00001204,0.00000126,-0.00000878,-0.00001960,-0.00000509,0.0
 0000184,-0.00000097,0.00005227,0.00005184,0.00000854,0.00000243,-0.000
 02941,-0.00000873,-0.00000627,0.00000503,0.00000634,-0.00000669,0.0000
 0502,-0.00000155,0.00001350,0.00000165,-0.00000092,0.00000104,0.000003
 98,-0.00000148,0.00000246,0.00000329,0.00000392,0.00005962,0.00001067,
 0.00003358,0.00000535,-0.00000100,-0.00002168,-0.00000946,0.00000179,0
 .00000822,0.00000265,0.00003009,-0.00001984,-0.00000154,0.00001061,-0.
 00000088,0.00000876,-0.00002624,-0.00001030,0.00001603,0.00000583,0.00
 001423,0.00430519,0.00091813,-0.00238328,-0.00525222,-0.01419446,-0.01
 031364,0.00021130,-0.00022582,0.00165653,-0.03219592,-0.27118236,-0.11
 740169,-0.00038003,0.00017928,0.00197693,-0.00093977,0.00301613,-0.002
 68658,0.00071328,-0.00282177,-0.00299169,0.03423554,0.28538491,-0.0000
 5955,0.00000550,-0.00001987,0.00020440,-0.00001820,-0.00029323,-0.0001
 0840,-0.00010159,0.00002589,0.00003409,0.00001551,-0.00001805,-0.00000
 885,-0.00000239,0.00000071,-0.00000542,-0.00000365,0.00000694,0.000009
 14,0.00000601,0.00001207,0.,0.00000119,0.00000043,0.00000095,0.0000044
 8,-0.00000366,0.00000173,0.00000121,-0.00000288,0.00003073,0.00003497,
 -0.00000913,0.00000148,-0.00001610,-0.00000056,-0.00000400,0.00000008,
 0.00000305,-0.00000784,0.00000781,0.00000011,0.00000672,0.00000148,-0.
 00000072,0.00000234,0.00000316,-0.00000257,0.00000056,0.00000100,0.000
 00090,0.00002508,-0.00000235,0.00001057,0.00001555,0.00001946,-0.00001
 408,-0.00000553,0.00000400,0.00000334,-0.00000617,0.00002220,-0.000010
 11,0.00000647,0.00001134,-0.00000704,0.00000928,-0.00003879,-0.0000023
 3,0.00001032,-0.00000200,0.00001031,-0.00161914,-0.00224015,0.00750367
 ,-0.00102830,-0.00202692,0.00299842,0.00078398,0.00159982,-0.00266684,
 -0.02354594,-0.11759317,-0.10104838,0.00147943,0.00177654,-0.00302786,
 -0.00439782,-0.00237978,0.00560402,0.00010457,-0.01114693,-0.00105544,
 0.02696673,0.13082236,0.09501185,0.00010725,0.00021079,-0.00000602,-0.
 00059821,-0.00015139,-0.00016651,0.00023829,0.00005726,0.00000293,-0.0
 0007808,-0.00001956,0.00002994,0.00001189,-0.00001005,-0.00000109,0.00
 000854,0.00000874,0.00000367,-0.00001846,-0.00001535,-0.00003298,-0.00
 000656,-0.00000359,-0.00001068,-0.00000214,-0.00000245,0.00001720,-0.0
 0000327,0.00000512,0.00000374,-0.00005602,-0.00005948,-0.00000792,-0.0
 0000180,0.00004205,0.00001107,0.00000437,-0.00000318,-0.00000373,0.000
 00639,-0.00000504,0.00000016,-0.00002250,0.00000139,0.00000193,0.00000
 121,-0.00000742,0.00000007,0.00000113,-0.00000530,-0.00000292,-0.00008
 990,-0.00001856,-0.00003051,0.00000295,0.00001179,0.00001229,0.0000053
 8,0.00000654,-0.00000327,-0.00001185,-0.00003437,0.00002489,-0.0000069
 0,-0.00001445,0.00000745,-0.00000721,0.00001062,-0.00001797,0.00000410
 ,0.00000403,-0.00000262,0.00021143,0.00238555,-0.00193522,-0.00007457,
 0.00042110,0.00024621,-0.03087875,0.00395515,-0.00610177,0.00186235,0.
 00010806,-0.00154164,-0.00021589,-0.00044587,0.00029725,-0.25424722,-0
 .07594545,-0.09692352,0.00095545,0.00084811,-0.00119631,-0.00009844,0.
 00008099,0.00010073,0.28278611,0.00005419,-0.00013465,0.00002535,0.000
 26274,0.00033515,0.00002532,-0.00001666,0.00003080,-0.00001289,0.00001
 483,0.00000021,-0.00000568,-0.00000104,0.00000256,0.00000158,0.0000002
 8,0.00000098,-0.00000037,0.00000119,0.00000217,0.00000625,0.00000202,-
 0.00000047,0.00000173,0.00000052,-0.00000153,-0.00000208,-0.00000079,0
 .00000070,-0.00000007,0.00000213,0.00000448,0.00000192,0.00000045,-0.0
 0000255,-0.00000104,-0.00000030,0.00000042,0.00000019,-0.00000043,-0.0
 0000017,0.00000002,0.00000147,0.00000028,-0.00000005,-0.00000003,0.000
 00009,0.00000013,0.00000018,0.00000028,0.00000024,0.00002018,0.0000017
 8,0.00000813,0.00000411,-0.00000018,-0.00000285,-0.00000105,0.00000191
 ,0.00000041,-0.00000033,0.00000776,-0.00000673,-0.00000215,0.00000078,
 0.00000079,0.00000037,-0.00000456,-0.00000476,0.00000399,0.00000162,0.
 00000296,0.00562313,0.00088783,-0.00279901,0.00089874,-0.00042751,0.00
 018718,0.02547357,0.00560591,0.01205187,0.00142330,-0.00405061,-0.0046
 5200,-0.00029401,-0.00009967,0.00074048,-0.07605910,-0.08451824,-0.041
 90590,-0.02555070,-0.00244618,-0.01145060,-0.00149676,-0.00034629,-0.0
 0050547,0.06945490,0.08498415,0.00002296,0.00003504,0.00005245,-0.0000
 8471,0.00001178,0.00020968,0.00006497,0.00001218,-0.00001810,-0.000027
 17,-0.00000749,0.00000781,0.00000250,-0.00000386,0.00000071,0.00000288
 ,0.00000375,0.00000196,-0.00000660,-0.00000467,-0.00001125,-0.00000159
 ,-0.00000104,-0.00000364,0.00000014,-0.00000160,0.00000524,-0.00000146
 ,0.00000195,0.00000128,-0.00001122,-0.00001409,-0.00000141,0.00000041,
 0.00001038,0.00000308,0.00000145,-0.00000072,-0.00000141,0.00000148,-0
 .00000091,0.00000018,-0.00000603,0.00000067,0.00000088,0.00000055,-0.0
 0000171,-0.00000020,0.00000024,-0.00000194,-0.00000120,-0.00001595,-0.
 00000160,-0.00000583,0.00000224,0.00000414,0.00000046,0.00000218,0.000
 00114,-0.00000052,-0.00000365,-0.00000586,0.00000418,-0.00000022,-0.00
 000191,0.00000185,-0.00000190,0.00000028,-0.00000187,0.00000128,0.0000
 0083,-0.00000076,-0.00065690,-0.00388851,0.00875904,0.00034030,0.00011
 703,-0.00010368,0.00396512,0.00535651,-0.00075884,-0.00098339,-0.00501
 850,0.00471714,0.00045723,0.00074069,-0.00147677,-0.09713715,-0.041610
 63,-0.08847359,-0.01304377,-0.00371273,0.00066269,-0.00058690,0.000008
 43,-0.00047197,0.10667253,0.04683529,0.07904782,0.00005516,-0.00001262
 ,0.00004881,0.00006047,-0.00000719,0.00033671,0.00013330,0.00007728,-0
 .00002643,-0.00004231,-0.00001701,0.00001692,0.00000822,-0.00000251,0.
 00000192,0.00000796,0.00000791,0.00000155,-0.00001255,-0.00000764,-0.0
 0001733,-0.00000319,-0.00000205,-0.00000595,-0.00000046,-0.00000398,0.
 00000899,-0.00000251,0.00000228,0.00000216,-0.00003665,-0.00003889,-0.
 00000142,-0.00000047,0.00002453,0.00000640,0.00000331,-0.00000072,-0.0
 0000333,0.00000564,-0.00000501,0.00000089,-0.00001243,0.00000013,0.000
 00117,-0.00000027,-0.00000435,0.00000085,0.00000036,-0.00000292,-0.000
 00210,-0.00003695,-0.00000840,-0.00001247,0.00000800,0.00000541,0.0000
 1013,0.00000323,0.00000207,-0.00000155,-0.00000581,-0.00001434,0.00001
 081,-0.00000954,-0.00000948,0.00000820,-0.00000494,0.00000929,-0.00001
 690,0.00000331,0.00000548,-0.00000296,-0.00013715,-0.00108904,-0.00046
 942,-0.00265012,-0.00238245,-0.00412095,0.00191865,-0.00009379,-0.0019
 0238,-0.01667797,0.01953332,0.00363928,-0.00074220,0.00109251,0.000088
 20,0.00589629,-0.00438407,0.00010411,-0.22805482,0.14060635,0.00445486
 ,0.00080420,-0.00079323,0.00100269,0.00021093,0.00018108,0.00103015,0.
 23931132,-0.00006631,-0.00008257,0.00011804,0.00028392,-0.00010285,0.0
 0039658,-0.00010552,-0.00002336,-0.00005216,0.00002443,0.00000245,-0.0
 0000892,-0.00000450,0.00000535,0.00000211,-0.00000263,-0.00000237,-0.0
 0000196,0.00000654,0.00000529,0.00001127,0.00000401,0.00000192,0.00000
 559,0.00000135,0.00000009,-0.00000856,0.00000087,-0.00000207,-0.000001
 56,0.00002451,0.00002429,0.00000664,0.00000056,-0.00001818,-0.00000440
 ,-0.00000279,0.00000318,0.00000251,-0.00000180,0.00000086,-0.00000057,
 0.00000962,-0.00000071,-0.00000090,-0.00000101,0.00000304,0.00000006,0
 .00000017,0.00000253,0.00000179,0.00004662,0.00001121,0.00001591,-0.00
 000154,-0.00000677,-0.00000461,-0.00000371,-0.00000447,0.00000348,0.00
 000694,0.00001747,-0.00001149,0.00000090,0.00000495,-0.00000222,0.0000
 0273,-0.00000299,0.00000448,-0.00000095,-0.00000016,0.00000187,-0.0024
 0055,-0.00030367,-0.00072281,-0.00117474,0.00140578,-0.00301287,0.0000
 0878,-0.00384977,-0.00532030,-0.00845119,0.00899753,0.00122124,-0.0004
 3352,0.00047228,-0.00019946,0.02509986,-0.01131959,0.00282693,0.140562
 97,-0.16727030,-0.01906594,0.00010460,0.00008290,0.00173936,-0.0008706
 9,0.00016275,0.00113768,-0.15266795,0.17178595,0.00000280,-0.00009444,
 -0.00018627,0.00025109,0.00049543,-0.00071798,0.00005579,0.00003968,0.
 00008729,0.00003262,0.00001126,-0.00001237,-0.00000090,0.00000094,-0.0
 0000256,0.00000023,0.00000023,0.00000081,0.00000388,0.00000584,0.00001
 186,-0.00000171,-0.00000082,-0.00000080,0.00000046,-0.00000099,0.00000
 219,-0.00000045,-0.00000039,-0.00000032,0.00000223,0.00000753,-0.00000
 347,0.00000059,-0.00000388,-0.00000201,0.00000195,-0.00000397,-0.00000
 250,-0.00000115,0.00000138,0.00000077,0.00000160,0.00000033,-0.0000000
 2,0.00000050,0.00000071,-0.00000024,-0.00000137,-0.00000003,-0.0000005
 2,0.00000397,-0.00000410,-0.00000148,0.00000578,0.00000143,0.00000107,
 0.00000138,0.00000300,-0.00000351,-0.00000270,0.00000210,-0.00000405,0
 .00000123,0.00000341,-0.00000058,0.00000043,-0.00000455,0.00000043,-0.
 00000008,-0.00000040,-0.00000083,-0.00094364,-0.00035132,-0.00073351,-
 0.00367398,-0.00325233,0.00468447,-0.00152686,-0.00548034,0.00510146,-
 0.00902694,0.00956910,0.00241803,-0.00063211,0.00022233,0.00047940,0.0
 1322539,-0.00601356,0.00032919,0.00444988,-0.01905088,-0.03899673,0.00
 140910,0.00151447,-0.00253755,0.00055260,0.00145967,-0.00214542,-0.004
 19159,0.02092317,0.03223575\\0.00000305,0.00000072,-0.00000110,0.00000
 131,-0.00000099,-0.00000491,-0.00000340,-0.00000116,-0.00000089,-0.000
 00271,-0.00000135,-0.00000128,-0.00000214,-0.00000449,0.00000128,-0.00
 000048,-0.00000156,0.00000240,0.00000003,-0.00000140,0.00000395,-0.000
 00169,-0.00000348,0.00000086,-0.00000129,-0.00000358,-0.00000103,-0.00
 000081,-0.00000267,-0.00000008,0.00000024,0.00000346,0.00000026,0.0000
 0069,-0.00000082,-0.00000067,-0.00000060,0.00000074,-0.00000045,0.0000
 0042,-0.00000048,-0.00000126,0.00000003,0.00000093,0.00000083,0.000000
 19,0.00000168,0.00000185,-0.00000029,0.00000056,0.00000233,0.00000231,
 0.00000282,0.00000510,0.00000093,0.00000151,0.00000287,0.00000024,0.00
 000257,0.00000143,0.00000143,0.00000131,0.00000131,0.00000231,0.000002
 58,0.00000422,0.00000078,0.00000127,0.00000166,-0.00000064,0.00000048,
 0.00000392,-0.00000127,-0.00000009,-0.00000234,-0.00000360,0.00000259,
 -0.00000140,0.00000376,0.00000001,-0.00000340,0.00000453,-0.00000273,-
 0.00000121,0.00000020,-0.00000045,-0.00000063,-0.00000049,0.00000435,-
 0.00000393,-0.00000318,-0.00000132,-0.00000403,-0.00000033,-0.00000139
 ,0.00000009,0.00000061,0.00000092,-0.00000467,-0.00000013,-0.00000054,
 -0.00000108\\\@


 ERWIN WITH HIS PSI CAN DO
 CALCULATIONS QUITE A FEW.
 BUT ONE THING HAS NOT BEEN SEEN
 JUST WHAT DOES PSI REALLY MEAN.
 -- WALTER HUCKEL, TRANS. BY FELIX BLOCH
 Job cpu time:       0 days  0 hours 30 minutes 55.8 seconds.
 File lengths (MBytes):  RWF=    355 Int=      0 D2E=      0 Chk=      7 Scr=      1
 Normal termination of Gaussian 09 at Tue May  2 07:51:39 2023.
