 Entering Gaussian System, Link 0=g09
 Input=au-1to3-ts-2-af22-c-term-level3-freq-se-new.com
 Output=au-1to3-ts-2-af22-c-term-level3-freq-se-new.log
 Initial command:
 /home/scr/programs/g09/l1.exe "/home/scr/guest2/Gau-4275.inp" -scrdir="/home/scr/guest2/"
 Entering Link 1 = /home/scr/programs/g09/l1.exe PID=      4276.
  
 Copyright (c) 1988,1990,1992,1993,1995,1998,2003,2009,2013,
            Gaussian, Inc.  All Rights Reserved.
  
 This is part of the Gaussian(R) 09 program.  It is based on
 the Gaussian(R) 03 system (copyright 2003, Gaussian, Inc.),
 the Gaussian(R) 98 system (copyright 1998, Gaussian, Inc.),
 the Gaussian(R) 94 system (copyright 1995, Gaussian, Inc.),
 the Gaussian 92(TM) system (copyright 1992, Gaussian, Inc.),
 the Gaussian 90(TM) system (copyright 1990, Gaussian, Inc.),
 the Gaussian 88(TM) system (copyright 1988, Gaussian, Inc.),
 the Gaussian 86(TM) system (copyright 1986, Carnegie Mellon
 University), and the Gaussian 82(TM) system (copyright 1983,
 Carnegie Mellon University). Gaussian is a federally registered
 trademark of Gaussian, Inc.
  
 This software contains proprietary and confidential information,
 including trade secrets, belonging to Gaussian, Inc.
  
 This software is provided under written license and may be
 used, copied, transmitted, or stored only in accord with that
 written license.
  
 The following legend is applicable only to US Government
 contracts under FAR:
  
                    RESTRICTED RIGHTS LEGEND
  
 Use, reproduction and disclosure by the US Government is
 subject to restrictions as set forth in subparagraphs (a)
 and (c) of the Commercial Computer Software - Restricted
 Rights clause in FAR 52.227-19.
  
 Gaussian, Inc.
 340 Quinnipiac St., Bldg. 40, Wallingford CT 06492
  
  
 ---------------------------------------------------------------
 Warning -- This program may not be used in any manner that
 competes with the business of Gaussian, Inc. or will provide
 assistance to any competitor of Gaussian, Inc.  The licensee
 of this program is prohibited from giving any competitor of
 Gaussian, Inc. access to this program.  By using this program,
 the user acknowledges that Gaussian, Inc. is engaged in the
 business of creating and licensing software in the field of
 computational chemistry and represents and warrants to the
 licensee that it is not a competitor of Gaussian, Inc. and that
 it will not use this program in any manner prohibited above.
 ---------------------------------------------------------------
  

 Cite this work as:
 Gaussian 09, Revision D.01,
 M. J. Frisch, G. W. Trucks, H. B. Schlegel, G. E. Scuseria, 
 M. A. Robb, J. R. Cheeseman, G. Scalmani, V. Barone, B. Mennucci, 
 G. A. Petersson, H. Nakatsuji, M. Caricato, X. Li, H. P. Hratchian, 
 A. F. Izmaylov, J. Bloino, G. Zheng, J. L. Sonnenberg, M. Hada, 
 M. Ehara, K. Toyota, R. Fukuda, J. Hasegawa, M. Ishida, T. Nakajima, 
 Y. Honda, O. Kitao, H. Nakai, T. Vreven, J. A. Montgomery, Jr., 
 J. E. Peralta, F. Ogliaro, M. Bearpark, J. J. Heyd, E. Brothers, 
 K. N. Kudin, V. N. Staroverov, T. Keith, R. Kobayashi, J. Normand, 
 K. Raghavachari, A. Rendell, J. C. Burant, S. S. Iyengar, J. Tomasi, 
 M. Cossi, N. Rega, J. M. Millam, M. Klene, J. E. Knox, J. B. Cross, 
 V. Bakken, C. Adamo, J. Jaramillo, R. Gomperts, R. E. Stratmann, 
 O. Yazyev, A. J. Austin, R. Cammi, C. Pomelli, J. W. Ochterski, 
 R. L. Martin, K. Morokuma, V. G. Zakrzewski, G. A. Voth, 
 P. Salvador, J. J. Dannenberg, S. Dapprich, A. D. Daniels, 
 O. Farkas, J. B. Foresman, J. V. Ortiz, J. Cioslowski, 
 and D. J. Fox, Gaussian, Inc., Wallingford CT, 2013.
 
 ******************************************
 Gaussian 09:  EM64L-G09RevD.01 24-Apr-2013
                28-Apr-2023 
 ******************************************
 %mem=30000MB
 %nprocshared=15
 Will use up to   15 processors via shared memory.
 %chk=au-1to3-ts-2-af22-c-term-level3-freq-se-new.chk
 ----------------------------------------------------------------
 # opt=(ts,readfc,noeigentest) freq=noraman b3lyp/gen pseudo=read
 ----------------------------------------------------------------
 1/5=1,10=3,11=1,14=-1,18=20,26=3,38=1/1,3;
 2/9=110,12=2,17=6,18=5,40=1/2;
 3/5=7,11=2,16=1,17=8,25=1,30=1,71=1,74=-5/1,2,3;
 4//1;
 5/5=2,38=5/2;
 6/7=2,8=2,9=2,10=2,28=1/1;
 7//1,2,3,16;
 1/5=1,11=1,14=-1,18=20,26=3/3(2);
 2/9=110/2;
 99//99;
 2/9=110/2;
 3/5=7,6=1,11=2,16=1,17=8,25=1,30=1,71=1,74=-5,82=7/1,2,3;
 4/5=5,16=3,69=1/1;
 5/5=2,38=5/2;
 7//1,2,3,16;
 1/5=1,11=1,14=-1,18=20,26=3/3(-5);
 2/9=110/2;
 6/7=2,8=2,9=2,10=2,19=2,28=1/1;
 99/9=1/99;
 -------------------
 Title Card Required
 -------------------
 Symbolic Z-matrix:
 Charge =  0 Multiplicity = 1
 Au                   -2.09674   0.08699  -0.79087 
 P                    -2.89178  -1.7378    0.4906 
 C                    -4.15328  -2.79047  -0.37162 
 H                    -4.50177  -3.55728   0.33161 
 H                    -3.62298  -3.30892  -1.18011 
 C                    -3.68441  -1.24946   2.09248 
 H                    -4.1076   -2.1527    2.55128 
 H                    -4.51919  -0.58681   1.84239 
 C                    -1.51603  -2.8977    0.93993 
 H                    -0.75487  -2.28678   1.43929 
 H                    -1.0769   -3.20914  -0.01518 
 C                    -5.33826  -1.99776  -0.94023 
 H                    -5.87857  -1.45283  -0.15922 
 H                    -5.00277  -1.26763  -1.68417 
 H                    -6.04659  -2.67787  -1.42621 
 C                    -1.87435  -4.122     1.79193 
 H                    -0.97     -4.7121    1.97756 
 H                    -2.29044  -3.83756   2.76445 
 H                    -2.59715  -4.77471   1.29112 
 C                    -2.72658  -0.54179   3.06028 
 H                    -2.28866   0.35102   2.60362 
 H                    -3.27293  -0.22267   3.9538 
 H                    -1.90902  -1.19578   3.38183 
 S                    -3.17366   2.29982  -0.46501 
 N                     5.02087  -1.38593   3.64631 
 C                     4.16504  -1.68014   2.49307 
 C                     4.73413  -1.03652   1.21297 
 O                     5.14038   0.12316   1.2445 
 C                     2.75705  -1.12226   2.81651 
 O                     1.76924  -1.43267   1.8337 
 N                     4.83103  -1.76087   0.04971 
 C                     4.37074  -3.11625  -0.22527 
 C                     2.84478  -3.27802  -0.15908 
 O                     2.33213  -3.96848   0.72995 
 N                     2.08055  -2.61215  -1.0577 
 C                     2.46776  -1.69801  -2.11632 
 C                     2.87114  -0.26887  -1.70853 
 O                     3.64933   0.34435  -2.4407 
 C                     1.29597  -1.56322  -3.13117 
 S                    -0.40073  -1.41067  -2.41887 
 N                     2.22795   0.27903  -0.65022 
 C                     2.05294   1.72443  -0.56506 
 C                     0.57173   2.09503  -0.72216 
 C                     2.5565    2.23409   0.80324 
 O                     1.87999   2.06116   1.81384 
 N                     3.74606   2.89293   0.83016 
 C                     4.78527   2.86529  -0.18223 
 C                     6.1287    3.04094   0.49902 
 O                     6.28865   3.29807   1.67128 
 O                     7.14166   2.91224  -0.38108 
 H                     2.47612  -1.51864   3.80025 
 H                     2.78979  -0.03182   2.87639 
 H                     1.73565  -2.40322   1.73874 
 H                     4.08629  -2.76767   2.39241 
 H                     5.26342  -0.39515   3.60267 
 H                     5.90195  -1.89052   3.55962 
 H                     4.78443  -3.83253   0.48912 
 H                     4.7433   -3.38763  -1.21829 
 H                     5.18531  -1.21345  -0.72726 
 H                     1.22726  -2.48861  -3.71702 
 H                     1.50387  -0.73255  -3.80881 
 H                     3.32409  -2.09974  -2.66838 
 H                     1.07712  -2.68807  -0.90082 
 H                     0.45091   3.17284  -0.8773 
 H                     0.01313   1.82662   0.17269 
 H                     2.63363   2.14412  -1.38659 
 H                     1.7526   -0.31056   0.03264 
 H                     4.67624   3.68043  -0.91289 
 H                     4.79969   1.92563  -0.74019 
 H                     4.08605   3.10162   1.76552 
 H                     7.96405   3.05383   0.12487 
 Se                   -0.31964   1.27546  -2.32253 
 C                    -4.49001   2.18328   0.72483 
 C                    -5.75987   1.69517   0.35667 
 C                    -4.30324   2.62411   2.04929 
 C                    -6.79799   1.63187   1.28681 
 H                    -5.92096   1.3765   -0.66896 
 C                    -5.34541   2.56547   2.97518 
 H                    -3.3335    3.01719   2.34013 
 H                    -7.77194   1.25577   0.98214 
 H                    -5.18127   2.91473   3.99177 
 N                    -6.59562   2.06455   2.60121 
 

 GradGradGradGradGradGradGradGradGradGradGradGradGradGradGradGradGradGrad
 Berny optimization.
 Initialization pass.
 No redundant coordinates on chk file, so ReadFC converted to ReadCartesianFC.
 Cartesian force constants read from checkpoint file:
 "au-1to3-ts-2-af22-c-term-level3-freq-se-new.chk"
 FormGI is forming the generalized inverse of G from B-inverse, IUseBI=4.
                           ----------------------------
                           !    Initial Parameters    !
                           ! (Angstroms and Degrees)  !
 --------------------------                            --------------------------
 ! Name  Definition              Value          Derivative Info.                !
 --------------------------------------------------------------------------------
 ! R1    R(1,2)                  2.3673         D2E/DX2 =    0.0927             !
 ! R2    R(1,24)                 2.4825         D2E/DX2 =    0.0643             !
 ! R3    R(1,40)                 2.7874         D2E/DX2 =    0.0302             !
 ! R4    R(1,72)                 2.6299         D2E/DX2 =    0.0591             !
 ! R5    R(2,3)                  1.8555         D2E/DX2 =    0.1859             !
 ! R6    R(2,6)                  1.8528         D2E/DX2 =    0.188              !
 ! R7    R(2,9)                  1.8547         D2E/DX2 =    0.1875             !
 ! R8    R(3,4)                  1.0973         D2E/DX2 =    0.3339             !
 ! R9    R(3,5)                  1.0971         D2E/DX2 =    0.3349             !
 ! R10   R(3,12)                 1.5349         D2E/DX2 =    0.2831             !
 ! R11   R(6,7)                  1.0979         D2E/DX2 =    0.3315             !
 ! R12   R(6,8)                  1.0948         D2E/DX2 =    0.3419             !
 ! R13   R(6,20)                 1.5346         D2E/DX2 =    0.2816             !
 ! R14   R(9,10)                 1.0963         D2E/DX2 =    0.3385             !
 ! R15   R(9,11)                 1.0964         D2E/DX2 =    0.337              !
 ! R16   R(9,16)                 1.534          D2E/DX2 =    0.279              !
 ! R17   R(12,13)                1.0949         D2E/DX2 =    0.3425             !
 ! R18   R(12,14)                1.095          D2E/DX2 =    0.3423             !
 ! R19   R(12,15)                1.0957         D2E/DX2 =    0.3401             !
 ! R20   R(16,17)                1.0957         D2E/DX2 =    0.3403             !
 ! R21   R(16,18)                1.0954         D2E/DX2 =    0.342              !
 ! R22   R(16,19)                1.0951         D2E/DX2 =    0.341              !
 ! R23   R(20,21)                1.0943         D2E/DX2 =    0.3448             !
 ! R24   R(20,22)                1.0949         D2E/DX2 =    0.342              !
 ! R25   R(20,23)                1.0952         D2E/DX2 =    0.3416             !
 ! R26   R(24,73)                1.7782         D2E/DX2 =    0.217              !
 ! R27   R(25,26)                1.4659         D2E/DX2 =    0.3316             !
 ! R28   R(25,55)                1.021          D2E/DX2 =    0.4363             !
 ! R29   R(25,56)                1.019          D2E/DX2 =    0.439              !
 ! R30   R(26,27)                1.5417         D2E/DX2 =    0.2547             !
 ! R31   R(26,29)                1.5486         D2E/DX2 =    0.2625             !
 ! R32   R(26,54)                1.095          D2E/DX2 =    0.3389             !
 ! R33   R(27,28)                1.2292         D2E/DX2 =    0.7869             !
 ! R34   R(27,31)                1.3738         D2E/DX2 =    0.4476             !
 ! R35   R(29,30)                1.4276         D2E/DX2 =    0.3434             !
 ! R36   R(29,51)                1.0972         D2E/DX2 =    0.3331             !
 ! R37   R(29,52)                1.0926         D2E/DX2 =    0.3487             !
 ! R38   R(30,53)                0.9758         D2E/DX2 =    0.4745             !
 ! R39   R(31,32)                1.4576         D2E/DX2 =    0.3594             !
 ! R40   R(31,59)                1.0143         D2E/DX2 =    0.4547             !
 ! R41   R(32,33)                1.5359         D2E/DX2 =    0.2641             !
 ! R42   R(32,57)                1.093          D2E/DX2 =    0.3442             !
 ! R43   R(32,58)                1.0948         D2E/DX2 =    0.3405             !
 ! R44   R(33,34)                1.2369         D2E/DX2 =    0.7467             !
 ! R45   R(33,35)                1.3546         D2E/DX2 =    0.4898             !
 ! R46   R(35,36)                1.4513         D2E/DX2 =    0.349              !
 ! R47   R(35,63)                1.0185         D2E/DX2 =    0.4361             !
 ! R48   R(36,37)                1.54           D2E/DX2 =    0.2416             !
 ! R49   R(36,39)                1.556          D2E/DX2 =    0.244              !
 ! R50   R(36,62)                1.0952         D2E/DX2 =    0.3357             !
 ! R51   R(37,38)                1.2319         D2E/DX2 =    0.7681             !
 ! R52   R(37,41)                1.3542         D2E/DX2 =    0.4604             !
 ! R53   R(39,40)                1.8465         D2E/DX2 =    0.1662             !
 ! R54   R(39,60)                1.0974         D2E/DX2 =    0.3336             !
 ! R55   R(39,61)                1.092          D2E/DX2 =    0.3479             !
 ! R56   R(41,42)                1.4585         D2E/DX2 =    0.3306             !
 ! R57   R(41,67)                1.0197         D2E/DX2 =    0.4334             !
 ! R58   R(42,43)                1.5349         D2E/DX2 =    0.2574             !
 ! R59   R(42,44)                1.5445         D2E/DX2 =    0.2483             !
 ! R60   R(42,66)                1.0901         D2E/DX2 =    0.3508             !
 ! R61   R(43,64)                1.0956         D2E/DX2 =    0.3393             !
 ! R62   R(43,65)                1.0885         D2E/DX2 =    0.3564             !
 ! R63   R(43,72)                2.0068         D2E/DX2 =    0.1347             !
 ! R64   R(44,45)                1.2284         D2E/DX2 =    0.7869             !
 ! R65   R(44,46)                1.3601         D2E/DX2 =    0.4671             !
 ! R66   R(46,47)                1.4511         D2E/DX2 =    0.3564             !
 ! R67   R(46,70)                1.0169         D2E/DX2 =    0.4487             !
 ! R68   R(47,48)                1.5165         D2E/DX2 =    0.2913             !
 ! R69   R(47,68)                1.1001         D2E/DX2 =    0.3264             !
 ! R70   R(47,69)                1.0929         D2E/DX2 =    0.3462             !
 ! R71   R(48,49)                1.2107         D2E/DX2 =    0.8703             !
 ! R72   R(48,50)                1.348          D2E/DX2 =    0.4189             !
 ! R73   R(50,71)                0.9759         D2E/DX2 =    0.4891             !
 ! R74   R(73,74)                1.4094         D2E/DX2 =    0.3773             !
 ! R75   R(73,75)                1.4083         D2E/DX2 =    0.3792             !
 ! R76   R(74,76)                1.3953         D2E/DX2 =    0.3925             !
 ! R77   R(74,77)                1.086          D2E/DX2 =    0.3623             !
 ! R78   R(75,78)                1.3953         D2E/DX2 =    0.3924             !
 ! R79   R(75,79)                1.086          D2E/DX2 =    0.3625             !
 ! R80   R(76,80)                1.0876         D2E/DX2 =    0.3604             !
 ! R81   R(76,82)                1.3985         D2E/DX2 =    0.2846             !
 ! R82   R(78,81)                1.0874         D2E/DX2 =    0.3612             !
 ! R83   R(78,82)                1.3978         D2E/DX2 =    0.2861             !
 ! A1    A(2,1,24)             118.0578         D2E/DX2 =    0.0598             !
 ! A2    A(2,1,40)              96.1046         D2E/DX2 =    0.0407             !
 ! A3    A(2,1,72)             152.9411         D2E/DX2 =    0.0246             !
 ! A4    A(24,1,40)            145.0398         D2E/DX2 =    0.0235             !
 ! A5    A(24,1,72)             88.0953         D2E/DX2 =    0.0324             !
 ! A6    A(40,1,72)             59.4369         D2E/DX2 =   -0.0035             !
 ! A7    A(1,2,3)              114.4621         D2E/DX2 =    0.0174             !
 ! A8    A(1,2,6)              114.1123         D2E/DX2 =    0.0203             !
 ! A9    A(1,2,9)              111.3517         D2E/DX2 =    0.0181             !
 ! A10   A(3,2,6)              105.0958         D2E/DX2 =    0.0209             !
 ! A11   A(3,2,9)              105.1937         D2E/DX2 =    0.0221             !
 ! A12   A(6,2,9)              105.8255         D2E/DX2 =    0.0257             !
 ! A13   A(2,3,4)              108.3353         D2E/DX2 =    0.0441             !
 ! A14   A(2,3,5)              106.3738         D2E/DX2 =    0.0427             !
 ! A15   A(2,3,12)             113.83           D2E/DX2 =    0.1196             !
 ! A16   A(4,3,5)              107.1911         D2E/DX2 =    0.0174             !
 ! A17   A(4,3,12)             110.6805         D2E/DX2 =    0.0456             !
 ! A18   A(5,3,12)             110.1347         D2E/DX2 =    0.0442             !
 ! A19   A(2,6,7)              108.0202         D2E/DX2 =    0.0451             !
 ! A20   A(2,6,8)              106.7529         D2E/DX2 =    0.0427             !
 ! A21   A(2,6,20)             113.565          D2E/DX2 =    0.1202             !
 ! A22   A(7,6,8)              107.4276         D2E/DX2 =    0.0176             !
 ! A23   A(7,6,20)             110.8811         D2E/DX2 =    0.0452             !
 ! A24   A(8,6,20)             109.931          D2E/DX2 =    0.0452             !
 ! A25   A(2,9,10)             106.0723         D2E/DX2 =    0.0491             !
 ! A26   A(2,9,11)             105.2897         D2E/DX2 =    0.0465             !
 ! A27   A(2,9,16)             117.4132         D2E/DX2 =    0.1176             !
 ! A28   A(10,9,11)            106.0815         D2E/DX2 =    0.0171             !
 ! A29   A(10,9,16)            110.7278         D2E/DX2 =    0.047              !
 ! A30   A(11,9,16)            110.5287         D2E/DX2 =    0.0457             !
 ! A31   A(3,12,13)            111.9478         D2E/DX2 =    0.1101             !
 ! A32   A(3,12,14)            111.0704         D2E/DX2 =    0.1105             !
 ! A33   A(3,12,15)            110.0502         D2E/DX2 =    0.1052             !
 ! A34   A(13,12,14)           107.6947         D2E/DX2 =    0.0549             !
 ! A35   A(13,12,15)           107.836          D2E/DX2 =    0.0538             !
 ! A36   A(14,12,15)           108.0959         D2E/DX2 =    0.0527             !
 ! A37   A(9,16,17)            109.3376         D2E/DX2 =    0.1035             !
 ! A38   A(9,16,18)            111.9992         D2E/DX2 =    0.1053             !
 ! A39   A(9,16,19)            112.0777         D2E/DX2 =    0.1067             !
 ! A40   A(17,16,18)           107.6356         D2E/DX2 =    0.052              !
 ! A41   A(17,16,19)           107.532          D2E/DX2 =    0.0524             !
 ! A42   A(18,16,19)           108.0644         D2E/DX2 =    0.0554             !
 ! A43   A(6,20,21)            111.2753         D2E/DX2 =    0.1085             !
 ! A44   A(6,20,22)            109.7328         D2E/DX2 =    0.1051             !
 ! A45   A(6,20,23)            112.0695         D2E/DX2 =    0.108              !
 ! A46   A(21,20,22)           107.6059         D2E/DX2 =    0.0523             !
 ! A47   A(21,20,23)           108.1192         D2E/DX2 =    0.0549             !
 ! A48   A(22,20,23)           107.8748         D2E/DX2 =    0.0532             !
 ! A49   A(1,24,73)            110.5207         D2E/DX2 =    0.192              !
 ! A50   A(26,25,55)           107.4472         D2E/DX2 =    0.1612             !
 ! A51   A(26,25,56)           109.7838         D2E/DX2 =    0.1565             !
 ! A52   A(55,25,56)           105.7529         D2E/DX2 =    0.0566             !
 ! A53   A(25,26,27)           110.7273         D2E/DX2 =    0.0785             !
 ! A54   A(25,26,29)           107.1086         D2E/DX2 =    0.1059             !
 ! A55   A(25,26,54)           108.2777         D2E/DX2 =    0.0289             !
 ! A56   A(27,26,29)           111.017          D2E/DX2 =    0.1134             !
 ! A57   A(27,26,54)           111.398          D2E/DX2 =    0.0307             !
 ! A58   A(29,26,54)           108.1552         D2E/DX2 =    0.041              !
 ! A59   A(26,27,28)           119.6418         D2E/DX2 =    0.2092             !
 ! A60   A(26,27,31)           120.5983         D2E/DX2 =    0.3327             !
 ! A61   A(28,27,31)           119.7262         D2E/DX2 =    0.2438             !
 ! A62   A(26,29,30)           114.0151         D2E/DX2 =    0.2281             !
 ! A63   A(26,29,51)           106.853          D2E/DX2 =    0.0751             !
 ! A64   A(26,29,52)           110.1045         D2E/DX2 =    0.0855             !
 ! A65   A(30,29,51)           111.1946         D2E/DX2 =    0.0737             !
 ! A66   A(30,29,52)           105.9904         D2E/DX2 =    0.0734             !
 ! A67   A(51,29,52)           108.6091         D2E/DX2 =    0.0286             !
 ! A68   A(29,30,53)           107.8847         D2E/DX2 =    0.2208             !
 ! A69   A(27,31,32)           128.8853         D2E/DX2 =    0.3947             !
 ! A70   A(27,31,59)           112.8737         D2E/DX2 =    0.163              !
 ! A71   A(32,31,59)           117.8809         D2E/DX2 =    0.1616             !
 ! A72   A(31,32,33)           113.8003         D2E/DX2 =    0.4281             !
 ! A73   A(31,32,57)           111.5044         D2E/DX2 =    0.0975             !
 ! A74   A(31,32,58)           107.1073         D2E/DX2 =    0.1097             !
 ! A75   A(33,32,57)           106.1917         D2E/DX2 =    0.0952             !
 ! A76   A(33,32,58)           110.5528         D2E/DX2 =    0.0904             !
 ! A77   A(57,32,58)           107.5548         D2E/DX2 =    0.0268             !
 ! A78   A(32,33,34)           120.1023         D2E/DX2 =    0.1992             !
 ! A79   A(32,33,35)           118.6949         D2E/DX2 =    0.284              !
 ! A80   A(34,33,35)           121.1564         D2E/DX2 =    0.2215             !
 ! A81   A(33,35,36)           130.0153         D2E/DX2 =    0.2426             !
 ! A82   A(33,35,63)           114.6469         D2E/DX2 =    0.1197             !
 ! A83   A(36,35,63)           114.9722         D2E/DX2 =    0.1258             !
 ! A84   A(35,36,37)           117.4699         D2E/DX2 =    0.1524             !
 ! A85   A(35,36,39)           109.2315         D2E/DX2 =    0.12               !
 ! A86   A(35,36,62)           110.1974         D2E/DX2 =    0.0337             !
 ! A87   A(37,36,39)           106.8326         D2E/DX2 =    0.062              !
 ! A88   A(37,36,62)           105.6094         D2E/DX2 =    0.0281             !
 ! A89   A(39,36,62)           106.9684         D2E/DX2 =    0.0299             !
 ! A90   A(36,37,38)           118.0365         D2E/DX2 =    0.1648             !
 ! A91   A(36,37,41)           117.2587         D2E/DX2 =    0.1156             !
 ! A92   A(38,37,41)           124.2689         D2E/DX2 =    0.1773             !
 ! A93   A(36,39,40)           116.5866         D2E/DX2 =    0.1049             !
 ! A94   A(36,39,60)           108.8011         D2E/DX2 =    0.0644             !
 ! A95   A(36,39,61)           109.1025         D2E/DX2 =    0.0719             !
 ! A96   A(40,39,60)           102.5959         D2E/DX2 =    0.0462             !
 ! A97   A(40,39,61)           110.5785         D2E/DX2 =    0.05               !
 ! A98   A(60,39,61)           108.7896         D2E/DX2 =    0.0261             !
 ! A99   A(1,40,39)            145.9749         D2E/DX2 =    0.019              !
 ! A100  A(37,41,42)           120.2384         D2E/DX2 =    0.114              !
 ! A101  A(37,41,67)           120.7167         D2E/DX2 =    0.0971             !
 ! A102  A(42,41,67)           118.5523         D2E/DX2 =    0.0943             !
 ! A103  A(41,42,43)           110.4328         D2E/DX2 =    0.0568             !
 ! A104  A(41,42,44)           109.8546         D2E/DX2 =    0.0596             !
 ! A105  A(41,42,66)           105.8806         D2E/DX2 =    0.0269             !
 ! A106  A(43,42,44)           109.003          D2E/DX2 =    0.0718             !
 ! A107  A(43,42,66)           110.1192         D2E/DX2 =    0.0299             !
 ! A108  A(44,42,66)           111.5266         D2E/DX2 =    0.0267             !
 ! A109  A(42,43,64)           111.0039         D2E/DX2 =    0.0598             !
 ! A110  A(42,43,65)           110.5822         D2E/DX2 =    0.0612             !
 ! A111  A(42,43,72)           114.3077         D2E/DX2 =    0.0525             !
 ! A112  A(64,43,65)           107.6021         D2E/DX2 =    0.0268             !
 ! A113  A(64,43,72)           103.8775         D2E/DX2 =    0.0373             !
 ! A114  A(65,43,72)           109.0832         D2E/DX2 =    0.0399             !
 ! A115  A(42,44,45)           120.188          D2E/DX2 =    0.1772             !
 ! A116  A(42,44,46)           117.5504         D2E/DX2 =    0.1991             !
 ! A117  A(45,44,46)           122.2487         D2E/DX2 =    0.1952             !
 ! A118  A(44,46,47)           127.1088         D2E/DX2 =    0.1573             !
 ! A119  A(44,46,70)           114.2073         D2E/DX2 =    0.09               !
 ! A120  A(47,46,70)           113.9672         D2E/DX2 =    0.1002             !
 ! A121  A(46,47,48)           108.591          D2E/DX2 =    0.1969             !
 ! A122  A(46,47,68)           112.2274         D2E/DX2 =    0.0642             !
 ! A123  A(46,47,69)           112.4579         D2E/DX2 =    0.0678             !
 ! A124  A(48,47,68)           107.4784         D2E/DX2 =    0.062              !
 ! A125  A(48,47,69)           108.4956         D2E/DX2 =    0.0638             !
 ! A126  A(68,47,69)           107.4154         D2E/DX2 =    0.0258             !
 ! A127  A(47,48,49)           125.2104         D2E/DX2 =    0.1697             !
 ! A128  A(47,48,50)           111.1821         D2E/DX2 =    0.1609             !
 ! A129  A(49,48,50)           123.5814         D2E/DX2 =    0.1986             !
 ! A130  A(48,50,71)           106.314          D2E/DX2 =    0.1794             !
 ! A131  A(1,72,43)             91.1604         D2E/DX2 =    0.1519             !
 ! A132  A(24,73,74)           120.9905         D2E/DX2 =    0.1142             !
 ! A133  A(24,73,75)           120.7024         D2E/DX2 =    0.1144             !
 ! A134  A(74,73,75)           118.2656         D2E/DX2 =    0.0788             !
 ! A135  A(73,74,76)           120.7929         D2E/DX2 =    0.0827             !
 ! A136  A(73,74,77)           118.814          D2E/DX2 =    0.0828             !
 ! A137  A(76,74,77)           120.3906         D2E/DX2 =    0.081              !
 ! A138  A(73,75,78)           120.7872         D2E/DX2 =    0.0826             !
 ! A139  A(73,75,79)           118.9181         D2E/DX2 =    0.083              !
 ! A140  A(78,75,79)           120.2939         D2E/DX2 =    0.0814             !
 ! A141  A(74,76,80)           119.6839         D2E/DX2 =    0.0851             !
 ! A142  A(74,76,82)           120.3209         D2E/DX2 =    0.0945             !
 ! A143  A(80,76,82)           119.9905         D2E/DX2 =    0.0885             !
 ! A144  A(75,78,81)           119.6132         D2E/DX2 =    0.0852             !
 ! A145  A(75,78,82)           120.3707         D2E/DX2 =    0.0945             !
 ! A146  A(81,78,82)           120.0159         D2E/DX2 =    0.0885             !
 ! A147  A(76,82,78)           119.4554         D2E/DX2 =    0.1053             !
 ! D1    D(24,1,2,3)            95.5002         D2E/DX2 =    0.0081             !
 ! D2    D(24,1,2,6)           -25.6366         D2E/DX2 =    0.0084             !
 ! D3    D(24,1,2,9)          -145.3568         D2E/DX2 =    0.0083             !
 ! D4    D(40,1,2,3)           -76.8062         D2E/DX2 =    0.0071             !
 ! D5    D(40,1,2,6)           162.057          D2E/DX2 =    0.0071             !
 ! D6    D(40,1,2,9)            42.3368         D2E/DX2 =    0.0082             !
 ! D7    D(72,1,2,3)          -100.6305         D2E/DX2 =    0.0064             !
 ! D8    D(72,1,2,6)           138.2327         D2E/DX2 =    0.0064             !
 ! D9    D(72,1,2,9)            18.5125         D2E/DX2 =    0.0068             !
 ! D10   D(2,1,24,73)           -1.4245         D2E/DX2 =    0.0062             !
 ! D11   D(40,1,24,73)         165.1423         D2E/DX2 =    0.005              !
 ! D12   D(72,1,24,73)        -174.1596         D2E/DX2 =    0.0067             !
 ! D13   D(2,1,40,39)         -131.0794         D2E/DX2 =    0.012              !
 ! D14   D(24,1,40,39)          60.8191         D2E/DX2 =    0.011              !
 ! D15   D(72,1,40,39)          36.5989         D2E/DX2 =    0.0159             !
 ! D16   D(2,1,72,43)          -91.7952         D2E/DX2 =    0.0113             !
 ! D17   D(24,1,72,43)          74.0045         D2E/DX2 =    0.0162             !
 ! D18   D(40,1,72,43)        -119.5991         D2E/DX2 =    0.0334             !
 ! D19   D(1,2,3,4)           -176.0977         D2E/DX2 =    0.0101             !
 ! D20   D(1,2,3,5)             68.9476         D2E/DX2 =    0.0102             !
 ! D21   D(1,2,3,12)           -52.5183         D2E/DX2 =    0.0099             !
 ! D22   D(6,2,3,4)            -50.1131         D2E/DX2 =    0.013              !
 ! D23   D(6,2,3,5)           -165.0678         D2E/DX2 =    0.0134             !
 ! D24   D(6,2,3,12)            73.4663         D2E/DX2 =    0.013              !
 ! D25   D(9,2,3,4)             61.3525         D2E/DX2 =    0.013              !
 ! D26   D(9,2,3,5)            -53.6022         D2E/DX2 =    0.0131             !
 ! D27   D(9,2,3,12)          -175.0681         D2E/DX2 =    0.0129             !
 ! D28   D(1,2,6,7)            174.1324         D2E/DX2 =    0.0093             !
 ! D29   D(1,2,6,8)             58.8656         D2E/DX2 =    0.0097             !
 ! D30   D(1,2,6,20)           -62.4454         D2E/DX2 =    0.0104             !
 ! D31   D(3,2,6,7)             47.9313         D2E/DX2 =    0.0119             !
 ! D32   D(3,2,6,8)            -67.3355         D2E/DX2 =    0.012              !
 ! D33   D(3,2,6,20)           171.3535         D2E/DX2 =    0.0127             !
 ! D34   D(9,2,6,7)            -63.0832         D2E/DX2 =    0.012              !
 ! D35   D(9,2,6,8)           -178.35           D2E/DX2 =    0.0124             !
 ! D36   D(9,2,6,20)            60.339          D2E/DX2 =    0.013              !
 ! D37   D(1,2,9,10)            54.7175         D2E/DX2 =    0.0104             !
 ! D38   D(1,2,9,11)           -57.4684         D2E/DX2 =    0.0097             !
 ! D39   D(1,2,9,16)           179.0743         D2E/DX2 =    0.0093             !
 ! D40   D(3,2,9,10)           179.2502         D2E/DX2 =    0.0119             !
 ! D41   D(3,2,9,11)            67.0643         D2E/DX2 =    0.0113             !
 ! D42   D(3,2,9,16)           -56.393          D2E/DX2 =    0.011              !
 ! D43   D(6,2,9,10)           -69.8044         D2E/DX2 =    0.0124             !
 ! D44   D(6,2,9,11)           178.0096         D2E/DX2 =    0.0122             !
 ! D45   D(6,2,9,16)            54.5524         D2E/DX2 =    0.0117             !
 ! D46   D(2,3,12,13)          -59.6021         D2E/DX2 =    0.0124             !
 ! D47   D(2,3,12,14)           60.824          D2E/DX2 =    0.0128             !
 ! D48   D(2,3,12,15)         -179.5095         D2E/DX2 =    0.0131             !
 ! D49   D(4,3,12,13)           62.6947         D2E/DX2 =    0.0145             !
 ! D50   D(4,3,12,14)         -176.8791         D2E/DX2 =    0.0142             !
 ! D51   D(4,3,12,15)          -57.2127         D2E/DX2 =    0.014              !
 ! D52   D(5,3,12,13)         -178.9539         D2E/DX2 =    0.0142             !
 ! D53   D(5,3,12,14)          -58.5278         D2E/DX2 =    0.0149             !
 ! D54   D(5,3,12,15)           61.1387         D2E/DX2 =    0.0143             !
 ! D55   D(2,6,20,21)           57.2532         D2E/DX2 =    0.013              !
 ! D56   D(2,6,20,22)          176.2336         D2E/DX2 =    0.0132             !
 ! D57   D(2,6,20,23)          -63.9449         D2E/DX2 =    0.013              !
 ! D58   D(7,6,20,21)          179.0973         D2E/DX2 =    0.0143             !
 ! D59   D(7,6,20,22)          -61.9222         D2E/DX2 =    0.0141             !
 ! D60   D(7,6,20,23)           57.8992         D2E/DX2 =    0.0146             !
 ! D61   D(8,6,20,21)          -62.2625         D2E/DX2 =    0.0149             !
 ! D62   D(8,6,20,22)           56.7179         D2E/DX2 =    0.0143             !
 ! D63   D(8,6,20,23)          176.5394         D2E/DX2 =    0.0144             !
 ! D64   D(2,9,16,17)          179.9854         D2E/DX2 =    0.0132             !
 ! D65   D(2,9,16,18)          -60.8008         D2E/DX2 =    0.0128             !
 ! D66   D(2,9,16,19)           60.8517         D2E/DX2 =    0.0127             !
 ! D67   D(10,9,16,17)         -58.028          D2E/DX2 =    0.0145             !
 ! D68   D(10,9,16,18)          61.1858         D2E/DX2 =    0.0146             !
 ! D69   D(10,9,16,19)        -177.1617         D2E/DX2 =    0.0142             !
 ! D70   D(11,9,16,17)          59.2277         D2E/DX2 =    0.0142             !
 ! D71   D(11,9,16,18)         178.4414         D2E/DX2 =    0.0141             !
 ! D72   D(11,9,16,19)         -59.906          D2E/DX2 =    0.0145             !
 ! D73   D(1,24,73,74)         -80.4912         D2E/DX2 =    0.0129             !
 ! D74   D(1,24,73,75)         101.893          D2E/DX2 =    0.0123             !
 ! D75   D(55,25,26,27)         44.6793         D2E/DX2 =    0.0233             !
 ! D76   D(55,25,26,29)        -76.4986         D2E/DX2 =    0.0242             !
 ! D77   D(55,25,26,54)        167.0777         D2E/DX2 =    0.0149             !
 ! D78   D(56,25,26,27)        -69.8704         D2E/DX2 =    0.0214             !
 ! D79   D(56,25,26,29)        168.9517         D2E/DX2 =    0.0231             !
 ! D80   D(56,25,26,54)         52.5281         D2E/DX2 =    0.0133             !
 ! D81   D(25,26,27,28)        -44.7277         D2E/DX2 =    0.0238             !
 ! D82   D(25,26,27,31)        133.1549         D2E/DX2 =    0.0292             !
 ! D83   D(29,26,27,28)         74.1111         D2E/DX2 =    0.0483             !
 ! D84   D(29,26,27,31)       -108.0062         D2E/DX2 =    0.0774             !
 ! D85   D(54,26,27,28)       -165.2874         D2E/DX2 =    0.0223             !
 ! D86   D(54,26,27,31)         12.5953         D2E/DX2 =    0.0235             !
 ! D87   D(25,26,29,30)       -174.8266         D2E/DX2 =    0.0265             !
 ! D88   D(25,26,29,51)        -51.5606         D2E/DX2 =    0.0198             !
 ! D89   D(25,26,29,52)         66.211          D2E/DX2 =    0.0213             !
 ! D90   D(27,26,29,30)         64.1788         D2E/DX2 =    0.036              !
 ! D91   D(27,26,29,51)       -172.5552         D2E/DX2 =    0.027              !
 ! D92   D(27,26,29,52)        -54.7837         D2E/DX2 =    0.0236             !
 ! D93   D(54,26,29,30)        -58.322          D2E/DX2 =    0.0216             !
 ! D94   D(54,26,29,51)         64.944          D2E/DX2 =    0.0159             !
 ! D95   D(54,26,29,52)       -177.2844         D2E/DX2 =    0.0187             !
 ! D96   D(26,27,31,32)          4.7919         D2E/DX2 =    0.0499             !
 ! D97   D(26,27,31,59)        177.6622         D2E/DX2 =    0.0457             !
 ! D98   D(28,27,31,32)       -177.3273         D2E/DX2 =    0.0503             !
 ! D99   D(28,27,31,59)         -4.4569         D2E/DX2 =    0.0263             !
 ! D100  D(26,29,30,53)         57.089          D2E/DX2 =    0.0255             !
 ! D101  D(51,29,30,53)        -63.7871         D2E/DX2 =    0.0268             !
 ! D102  D(52,29,30,53)        178.363          D2E/DX2 =    0.0298             !
 ! D103  D(27,31,32,33)         64.6991         D2E/DX2 =    0.0522             !
 ! D104  D(27,31,32,57)        -55.3902         D2E/DX2 =    0.0263             !
 ! D105  D(27,31,32,58)       -172.8068         D2E/DX2 =    0.0357             !
 ! D106  D(59,31,32,33)       -107.8676         D2E/DX2 =    0.0329             !
 ! D107  D(59,31,32,57)        132.0431         D2E/DX2 =    0.0316             !
 ! D108  D(59,31,32,58)         14.6265         D2E/DX2 =    0.0163             !
 ! D109  D(31,32,33,34)       -113.211          D2E/DX2 =    0.0457             !
 ! D110  D(31,32,33,35)         64.34           D2E/DX2 =    0.0772             !
 ! D111  D(57,32,33,34)          9.8317         D2E/DX2 =    0.021              !
 ! D112  D(57,32,33,35)       -172.6174         D2E/DX2 =    0.0432             !
 ! D113  D(58,32,33,34)        126.21           D2E/DX2 =    0.0302             !
 ! D114  D(58,32,33,35)        -56.2391         D2E/DX2 =    0.037              !
 ! D115  D(32,33,35,36)         -1.5257         D2E/DX2 =    0.0411             !
 ! D116  D(32,33,35,63)       -174.1393         D2E/DX2 =    0.0426             !
 ! D117  D(34,33,35,36)        175.9984         D2E/DX2 =    0.0459             !
 ! D118  D(34,33,35,63)          3.3848         D2E/DX2 =    0.0193             !
 ! D119  D(33,35,36,37)        -76.0459         D2E/DX2 =    0.0597             !
 ! D120  D(33,35,36,39)        162.1489         D2E/DX2 =    0.0391             !
 ! D121  D(33,35,36,62)         44.9114         D2E/DX2 =    0.021              !
 ! D122  D(63,35,36,37)         96.5482         D2E/DX2 =    0.0233             !
 ! D123  D(63,35,36,39)        -25.257          D2E/DX2 =    0.0164             !
 ! D124  D(63,35,36,62)       -142.4945         D2E/DX2 =    0.0194             !
 ! D125  D(35,36,37,38)        153.1596         D2E/DX2 =    0.0373             !
 ! D126  D(35,36,37,41)        -34.0893         D2E/DX2 =    0.0358             !
 ! D127  D(39,36,37,38)        -83.8054         D2E/DX2 =    0.0176             !
 ! D128  D(39,36,37,41)         88.9456         D2E/DX2 =    0.0258             !
 ! D129  D(62,36,37,38)         29.842          D2E/DX2 =    0.0158             !
 ! D130  D(62,36,37,41)       -157.407          D2E/DX2 =    0.0246             !
 ! D131  D(35,36,39,40)         42.5597         D2E/DX2 =    0.0372             !
 ! D132  D(35,36,39,60)        -72.7803         D2E/DX2 =    0.0342             !
 ! D133  D(35,36,39,61)        168.666          D2E/DX2 =    0.037              !
 ! D134  D(37,36,39,40)        -85.4617         D2E/DX2 =    0.0279             !
 ! D135  D(37,36,39,60)        159.1983         D2E/DX2 =    0.0244             !
 ! D136  D(37,36,39,61)         40.6446         D2E/DX2 =    0.0219             !
 ! D137  D(62,36,39,40)        161.8181         D2E/DX2 =    0.0168             !
 ! D138  D(62,36,39,60)         46.4782         D2E/DX2 =    0.0145             !
 ! D139  D(62,36,39,61)        -72.0756         D2E/DX2 =    0.014              !
 ! D140  D(36,37,41,42)       -151.2182         D2E/DX2 =    0.0344             !
 ! D141  D(36,37,41,67)         20.6146         D2E/DX2 =    0.0196             !
 ! D142  D(38,37,41,42)         21.0365         D2E/DX2 =    0.0186             !
 ! D143  D(38,37,41,67)       -167.1307         D2E/DX2 =    0.0178             !
 ! D144  D(36,39,40,1)          60.4087         D2E/DX2 =    0.0335             !
 ! D145  D(60,39,40,1)         179.1666         D2E/DX2 =    0.0296             !
 ! D146  D(61,39,40,1)         -64.9574         D2E/DX2 =    0.0297             !
 ! D147  D(37,41,42,43)        111.7671         D2E/DX2 =    0.0186             !
 ! D148  D(37,41,42,44)       -127.97           D2E/DX2 =    0.0246             !
 ! D149  D(37,41,42,66)         -7.4172         D2E/DX2 =    0.0131             !
 ! D150  D(67,41,42,43)        -60.2405         D2E/DX2 =    0.0169             !
 ! D151  D(67,41,42,44)         60.0224         D2E/DX2 =    0.0177             !
 ! D152  D(67,41,42,66)       -179.4248         D2E/DX2 =    0.0126             !
 ! D153  D(41,42,43,64)       -167.7173         D2E/DX2 =    0.0139             !
 ! D154  D(41,42,43,65)         72.9295         D2E/DX2 =    0.0167             !
 ! D155  D(41,42,43,72)        -50.6312         D2E/DX2 =    0.0161             !
 ! D156  D(44,42,43,64)         71.5103         D2E/DX2 =    0.017              !
 ! D157  D(44,42,43,65)        -47.843          D2E/DX2 =    0.017              !
 ! D158  D(44,42,43,72)       -171.4036         D2E/DX2 =    0.0236             !
 ! D159  D(66,42,43,64)        -51.1367         D2E/DX2 =    0.0134             !
 ! D160  D(66,42,43,65)       -170.4899         D2E/DX2 =    0.0143             !
 ! D161  D(66,42,43,72)         65.9495         D2E/DX2 =    0.0153             !
 ! D162  D(41,42,44,45)        -76.0366         D2E/DX2 =    0.0214             !
 ! D163  D(41,42,44,46)        105.2385         D2E/DX2 =    0.0275             !
 ! D164  D(43,42,44,45)         45.0895         D2E/DX2 =    0.0175             !
 ! D165  D(43,42,44,46)       -133.6353         D2E/DX2 =    0.0207             !
 ! D166  D(66,42,44,45)        166.8872         D2E/DX2 =    0.0145             !
 ! D167  D(66,42,44,46)        -11.8377         D2E/DX2 =    0.0151             !
 ! D168  D(42,43,72,1)         121.422          D2E/DX2 =    0.0237             !
 ! D169  D(64,43,72,1)        -117.4658         D2E/DX2 =    0.0208             !
 ! D170  D(65,43,72,1)          -2.9413         D2E/DX2 =    0.023              !
 ! D171  D(42,44,46,47)        -18.651          D2E/DX2 =    0.012              !
 ! D172  D(42,44,46,70)       -172.6241         D2E/DX2 =    0.0121             !
 ! D173  D(45,44,46,47)        162.6523         D2E/DX2 =    0.0182             !
 ! D174  D(45,44,46,70)          8.6792         D2E/DX2 =    0.0135             !
 ! D175  D(44,46,47,48)       -148.9329         D2E/DX2 =    0.013              !
 ! D176  D(44,46,47,68)         92.3965         D2E/DX2 =    0.0162             !
 ! D177  D(44,46,47,69)        -28.8535         D2E/DX2 =    0.0151             !
 ! D178  D(70,46,47,48)          5.0926         D2E/DX2 =    0.013              !
 ! D179  D(70,46,47,68)       -113.578          D2E/DX2 =    0.0161             !
 ! D180  D(70,46,47,69)        125.172          D2E/DX2 =    0.0159             !
 ! D181  D(46,47,48,49)         -6.9264         D2E/DX2 =    0.0205             !
 ! D182  D(46,47,48,50)        174.8821         D2E/DX2 =    0.0214             !
 ! D183  D(68,47,48,49)        114.6977         D2E/DX2 =    0.0194             !
 ! D184  D(68,47,48,50)        -63.4938         D2E/DX2 =    0.0195             !
 ! D185  D(69,47,48,49)       -129.4402         D2E/DX2 =    0.0197             !
 ! D186  D(69,47,48,50)         52.3683         D2E/DX2 =    0.02               !
 ! D187  D(47,48,50,71)        178.9541         D2E/DX2 =    0.0168             !
 ! D188  D(49,48,50,71)          0.7276         D2E/DX2 =    0.0166             !
 ! D189  D(24,73,74,76)       -178.6395         D2E/DX2 =    0.0075             !
 ! D190  D(24,73,74,77)          0.7918         D2E/DX2 =    0.0088             !
 ! D191  D(75,73,74,76)         -0.967          D2E/DX2 =    0.0083             !
 ! D192  D(75,73,74,77)        178.4643         D2E/DX2 =    0.0086             !
 ! D193  D(24,73,75,78)        178.3328         D2E/DX2 =    0.0076             !
 ! D194  D(24,73,75,79)         -1.3468         D2E/DX2 =    0.0089             !
 ! D195  D(74,73,75,78)          0.6534         D2E/DX2 =    0.0083             !
 ! D196  D(74,73,75,79)       -179.0263         D2E/DX2 =    0.0087             !
 ! D197  D(73,74,76,80)        179.7554         D2E/DX2 =    0.0125             !
 ! D198  D(73,74,76,82)          0.547          D2E/DX2 =    0.0103             !
 ! D199  D(77,74,76,80)          0.3331         D2E/DX2 =    0.0121             !
 ! D200  D(77,74,76,82)       -178.8754         D2E/DX2 =    0.0101             !
 ! D201  D(73,75,78,81)       -179.7545         D2E/DX2 =    0.0125             !
 ! D202  D(73,75,78,82)          0.0826         D2E/DX2 =    0.0104             !
 ! D203  D(79,75,78,81)         -0.0793         D2E/DX2 =    0.0122             !
 ! D204  D(79,75,78,82)        179.7579         D2E/DX2 =    0.0101             !
 ! D205  D(74,76,82,78)          0.2075         D2E/DX2 =    0.0107             !
 ! D206  D(80,76,82,78)       -178.9985         D2E/DX2 =    0.013              !
 ! D207  D(75,78,82,76)         -0.5203         D2E/DX2 =    0.0107             !
 ! D208  D(81,78,82,76)        179.3162         D2E/DX2 =    0.013              !
 --------------------------------------------------------------------------------
 Trust Radius=3.00D-01 FncErr=1.00D-07 GrdErr=1.00D-06
 Number of steps in this run=    448 maximum allowed number of steps=    492.
 Search for a saddle point of order  1.
 GradGradGradGradGradGradGradGradGradGradGradGradGradGradGradGradGradGrad

 Stoichiometry    C24H40AuN6O7PS2Se
 Framework group  C1[X(C24H40AuN6O7PS2Se)]
 Deg. of freedom   240
 Full point group                 C1      NOp   1
 Largest Abelian subgroup         C1      NOp   1
 Largest concise Abelian subgroup C1      NOp   1
                         Standard orientation:                         
 ---------------------------------------------------------------------
 Center     Atomic      Atomic             Coordinates (Angstroms)
 Number     Number       Type             X           Y           Z
 ---------------------------------------------------------------------
      1         79           0        2.099917   -0.089812   -0.785346
      2         15           0        2.893369    1.738242    0.492440
      3          6           0        4.156744    2.788074   -0.370507
      4          1           0        4.504279    3.556712    0.331197
      5          1           0        3.628029    3.304467   -1.181353
      6          6           0        3.683040    1.254073    2.097040
      7          1           0        4.105761    2.158440    2.554063
      8          1           0        4.518023    0.590444    1.850243
      9          6           0        1.517251    2.899865    0.936154
     10          1           0        0.755010    2.290605    1.435884
     11          1           0        1.079890    3.208813   -0.020573
     12          6           0        5.342422    1.993379   -0.934853
     13          1           0        5.881186    1.450429   -0.151395
     14          1           0        5.007971    1.261303   -1.677349
     15          1           0        6.051835    2.671886   -1.421486
     16          6           0        1.874531    4.126404    1.785373
     17          1           0        0.970068    4.717338    1.967791
     18          1           0        2.288828    3.844515    2.759407
     19          1           0        2.598427    4.777470    1.284008
     20          6           0        2.723281    0.549434    3.065131
     21          1           0        2.285847   -0.344490    2.610189
     22          1           0        3.267967    0.232606    3.960485
     23          1           0        1.905401    1.204597    3.383452
     24         16           0        3.175484   -2.302112   -0.451472
     25          7           0       -5.024873    1.397901    3.635357
     26          6           0       -4.166931    1.688607    2.482787
     27          6           0       -4.734025    1.041644    1.203498
     28          8           0       -5.140742   -0.117807    1.237539
     29          6           0       -2.759707    1.131137    2.810228
     30          8           0       -1.770083    1.438479    1.828278
     31          7           0       -4.828657    1.762789    0.038058
     32          6           0       -4.367409    3.117242   -0.239877
     33          6           0       -2.841508    3.278665   -0.171481
     34          8           0       -2.330156    3.971403    0.716516
     35          7           0       -2.075952    2.610037   -1.066922
     36          6           0       -2.461647    1.693098   -2.123672
     37          6           0       -2.866243    0.265237   -1.712620
     38          8           0       -3.643369   -0.349746   -2.444438
     39          6           0       -1.288140    1.555074   -3.136105
     40         16           0        0.407263    1.403909   -2.420440
     41          7           0       -2.225088   -0.279950   -0.651680
     42          6           0       -2.050731   -1.725176   -0.562201
     43          6           0       -0.569387   -2.096725   -0.715695
     44          6           0       -2.556846   -2.230861    0.806624
     45          8           0       -1.882039   -2.055356    1.817920
     46          7           0       -3.746693   -2.889207    0.833306
     47          6           0       -4.784131   -2.864011   -0.180956
     48          6           0       -6.128800   -3.037296    0.498439
     49          8           0       -6.290880   -3.291117    1.671131
     50          8           0       -7.140190   -2.910688   -0.383773
     51          1           0       -2.480347    1.530147    3.793346
     52          1           0       -2.792940    0.040879    2.873069
     53          1           0       -1.735978    2.408746    1.730679
     54          1           0       -4.087624    2.775826    2.379249
     55          1           0       -5.267696    0.407088    3.594043
     56          1           0       -5.905616    1.902562    3.545735
     57          1           0       -4.782084    3.835646    0.471799
     58          1           0       -4.738138    3.385997   -1.234296
     59          1           0       -5.181771    1.213343   -0.738001
     60          1           0       -1.218082    2.478818   -3.724403
     61          1           0       -1.495157    0.722607   -3.811800
     62          1           0       -3.316877    2.093587   -2.678328
     63          1           0       -1.072765    2.686036   -0.908508
     64          1           0       -0.448682   -3.175003   -0.867640
     65          1           0       -0.012243   -1.826030    0.179374
     66          1           0       -2.630142   -2.146939   -1.383569
     67          1           0       -1.750716    0.311363    0.030366
     68          1           0       -4.674116   -3.681216   -0.909158
     69          1           0       -4.797249   -1.925893   -0.741550
     70          1           0       -4.088377   -3.095172    1.768649
     71          1           0       -7.963499   -3.050584    0.121139
     72         34           0        0.325053   -1.281913   -2.316782
     73          6           0        4.489805   -2.182727    0.740320
     74          6           0        5.760475   -1.696085    0.373017
     75          6           0        4.300576   -2.619815    2.065675
     76          6           0        6.796994   -1.630563    1.304780
     77          1           0        5.923455   -1.380319   -0.653209
     78          6           0        5.341153   -2.558963    2.993206
     79          1           0        3.330194   -3.011741    2.355924
     80          1           0        7.771607   -1.255658    1.000758
     81          1           0        5.175128   -2.905345    4.010478
     82          7           0        6.592196   -2.059523    2.620027
 ---------------------------------------------------------------------
 Rotational constants (GHZ):      0.0908159      0.0390532      0.0366538
 General basis read from cards:  (5D, 7F)
 ======================================================================================================
                                       Pseudopotential Parameters
 ======================================================================================================
  Center     Atomic      Valence      Angular      Power
  Number     Number     Electrons     Momentum     of R      Exponent        Coefficient   SO-Coeffient
 ======================================================================================================
    1         79           19
                                      G and up 
                                                     1      622.6287956      -60.00000000    0.00000000
                                                     2      136.2843607     -555.52923120    0.00000000
                                                     2       33.1549781     -168.00197850    0.00000000
                                                     2        9.9894895      -63.03998750    0.00000000
                                                     2        3.0481312       -4.25166810    0.00000000
                                      S - G
                                                     0      194.7374304        3.00000000    0.00000000
                                                     1      351.5327447       38.60208800    0.00000000
                                                     2      122.3270402      864.83707270    0.00000000
                                                     2       32.0914617      374.99355200    0.00000000
                                                     2        5.2451812      289.79101000    0.00000000
                                                     2        4.4916223     -152.45327730    0.00000000
                                      P - G
                                                     0      420.6158801        2.00000000    0.00000000
                                                     1      109.4417815       73.88856250    0.00000000
                                                     2       34.1714280      326.67298720    0.00000000
                                                     2        5.9879750      126.58145910    0.00000000
                                      D - G
                                                     0      219.2666158        3.00000000    0.00000000
                                                     1      122.7297786       55.67931490    0.00000000
                                                     2       63.1063369      449.19873350    0.00000000
                                                     2       18.3684520      215.02690910    0.00000000
                                                     2        4.4972844       64.08409950    0.00000000
                                      F - G
                                                     0      108.5506037        4.00000000    0.00000000
                                                     1       56.4795527       51.80653350    0.00000000
                                                     2       29.2069159      231.21831130    0.00000000
                                                     2        9.5440543      119.00473860    0.00000000
                                                     2        2.8965118       15.34241880    0.00000000
    2         15
                                   No pseudopotential on this center.
    3          6
                                   No pseudopotential on this center.
    4          1
                                   No pseudopotential on this center.
    5          1
                                   No pseudopotential on this center.
    6          6
                                   No pseudopotential on this center.
    7          1
                                   No pseudopotential on this center.
    8          1
                                   No pseudopotential on this center.
    9          6
                                   No pseudopotential on this center.
   10          1
                                   No pseudopotential on this center.
   11          1
                                   No pseudopotential on this center.
   12          6
                                   No pseudopotential on this center.
   13          1
                                   No pseudopotential on this center.
   14          1
                                   No pseudopotential on this center.
   15          1
                                   No pseudopotential on this center.
   16          6
                                   No pseudopotential on this center.
   17          1
                                   No pseudopotential on this center.
   18          1
                                   No pseudopotential on this center.
   19          1
                                   No pseudopotential on this center.
   20          6
                                   No pseudopotential on this center.
   21          1
                                   No pseudopotential on this center.
   22          1
                                   No pseudopotential on this center.
   23          1
                                   No pseudopotential on this center.
   24         16
                                   No pseudopotential on this center.
   25          7
                                   No pseudopotential on this center.
   26          6
                                   No pseudopotential on this center.
   27          6
                                   No pseudopotential on this center.
   28          8
                                   No pseudopotential on this center.
   29          6
                                   No pseudopotential on this center.
   30          8
                                   No pseudopotential on this center.
   31          7
                                   No pseudopotential on this center.
   32          6
                                   No pseudopotential on this center.
   33          6
                                   No pseudopotential on this center.
   34          8
                                   No pseudopotential on this center.
   35          7
                                   No pseudopotential on this center.
   36          6
                                   No pseudopotential on this center.
   37          6
                                   No pseudopotential on this center.
   38          8
                                   No pseudopotential on this center.
   39          6
                                   No pseudopotential on this center.
   40         16
                                   No pseudopotential on this center.
   41          7
                                   No pseudopotential on this center.
   42          6
                                   No pseudopotential on this center.
   43          6
                                   No pseudopotential on this center.
   44          6
                                   No pseudopotential on this center.
   45          8
                                   No pseudopotential on this center.
   46          7
                                   No pseudopotential on this center.
   47          6
                                   No pseudopotential on this center.
   48          6
                                   No pseudopotential on this center.
   49          8
                                   No pseudopotential on this center.
   50          8
                                   No pseudopotential on this center.
   51          1
                                   No pseudopotential on this center.
   52          1
                                   No pseudopotential on this center.
   53          1
                                   No pseudopotential on this center.
   54          1
                                   No pseudopotential on this center.
   55          1
                                   No pseudopotential on this center.
   56          1
                                   No pseudopotential on this center.
   57          1
                                   No pseudopotential on this center.
   58          1
                                   No pseudopotential on this center.
   59          1
                                   No pseudopotential on this center.
   60          1
                                   No pseudopotential on this center.
   61          1
                                   No pseudopotential on this center.
   62          1
                                   No pseudopotential on this center.
   63          1
                                   No pseudopotential on this center.
   64          1
                                   No pseudopotential on this center.
   65          1
                                   No pseudopotential on this center.
   66          1
                                   No pseudopotential on this center.
   67          1
                                   No pseudopotential on this center.
   68          1
                                   No pseudopotential on this center.
   69          1
                                   No pseudopotential on this center.
   70          1
                                   No pseudopotential on this center.
   71          1
                                   No pseudopotential on this center.
   72         34
                                   No pseudopotential on this center.
   73          6
                                   No pseudopotential on this center.
   74          6
                                   No pseudopotential on this center.
   75          6
                                   No pseudopotential on this center.
   76          6
                                   No pseudopotential on this center.
   77          1
                                   No pseudopotential on this center.
   78          6
                                   No pseudopotential on this center.
   79          1
                                   No pseudopotential on this center.
   80          1
                                   No pseudopotential on this center.
   81          1
                                   No pseudopotential on this center.
   82          7
                                   No pseudopotential on this center.
 ======================================================================================================
 There are   770 symmetry adapted cartesian basis functions of A   symmetry.
 There are   722 symmetry adapted basis functions of A   symmetry.
   722 basis functions,  1483 primitive gaussians,   770 cartesian basis functions
   191 alpha electrons      191 beta electrons
       nuclear repulsion energy      7758.7730222620 Hartrees.
 NAtoms=   82 NActive=   82 NUniq=   82 SFac= 1.00D+00 NAtFMM=   60 NAOKFM=T Big=T
 Integral buffers will be    131072 words long.
 Raffenetti 2 integral format.
 Two-electron integral symmetry is turned on.
 One-electron integrals computed using PRISM.
   1 Symmetry operations used in ECPInt.
 ECPInt:  NShTT=   36315 NPrTT=  221058 LenC2=   27307 LenP2D=   84489.
 LDataN:  DoStor=T MaxTD1= 7 Len=  274
 NBasis=   722 RedAO= T EigKep=  1.02D-03  NBF=   722
 NBsUse=   722 1.00D-06 EigRej= -1.00D+00 NBFU=   722
 Defaulting to unpruned grid for atomic number  79.
 ExpMin= 2.79D-02 ExpMax= 5.61D+05 ExpMxC= 5.42D+03 IAcc=3 IRadAn=         5 AccDes= 0.00D+00
 Harris functional with IExCor=  402 and IRadAn=       5 diagonalized for initial guess.
 HarFok:  IExCor=  402 AccDes= 0.00D+00 IRadAn=         5 IDoV= 1 UseB2=F ITyADJ=14
 ICtDFT=  3500011 ScaDFX=  1.000000  1.000000  1.000000  1.000000
 Defaulting to unpruned grid for atomic number  79.
 Defaulting to unpruned grid for atomic number  79.
 Defaulting to unpruned grid for atomic number  79.
 Defaulting to unpruned grid for atomic number  79.
 Defaulting to unpruned grid for atomic number  79.
 Defaulting to unpruned grid for atomic number  79.
 Defaulting to unpruned grid for atomic number  79.
 Defaulting to unpruned grid for atomic number  79.
 Defaulting to unpruned grid for atomic number  79.
 Defaulting to unpruned grid for atomic number  79.
 Defaulting to unpruned grid for atomic number  79.
 Defaulting to unpruned grid for atomic number  79.
 Defaulting to unpruned grid for atomic number  79.
 Defaulting to unpruned grid for atomic number  79.
 Defaulting to unpruned grid for atomic number  79.
 FoFCou: FMM=F IPFlag=           0 FMFlag=      100000 FMFlg1=        2001
         NFxFlg=           0 DoJE=T BraDBF=F KetDBF=T FulRan=T
         wScrn=  0.000000 ICntrl=     500 IOpCl=  0 I1Cent=   200000004 NGrid=           0
         NMat0=    1 NMatS0=      1 NMatT0=    0 NMatD0=    1 NMtDS0=    0 NMtDT0=    0
 Petite list used in FoFCou.
 Requested convergence on RMS density matrix=1.00D-08 within 128 cycles.
 Requested convergence on MAX density matrix=1.00D-06.
 Requested convergence on             energy=1.00D-06.
 No special actions if energy rises.
 Defaulting to unpruned grid for atomic number  79.
 Defaulting to unpruned grid for atomic number  79.
 Defaulting to unpruned grid for atomic number  79.
 Defaulting to unpruned grid for atomic number  79.
 Defaulting to unpruned grid for atomic number  79.
 Defaulting to unpruned grid for atomic number  79.
 Defaulting to unpruned grid for atomic number  79.
 Defaulting to unpruned grid for atomic number  79.
 Defaulting to unpruned grid for atomic number  79.
 Defaulting to unpruned grid for atomic number  79.
 Defaulting to unpruned grid for atomic number  79.
 Defaulting to unpruned grid for atomic number  79.
 Defaulting to unpruned grid for atomic number  79.
 Defaulting to unpruned grid for atomic number  79.
 Defaulting to unpruned grid for atomic number  79.
 EnCoef did     7 forward-backward iterations
 EnCoef did   100 forward-backward iterations
 EnCoef did     3 forward-backward iterations
 Restarting incremental Fock formation.
 SCF Done:  E(RB3LYP) =  -5465.88509542     A.U. after   22 cycles
            NFock= 22  Conv=0.21D-08     -V/T= 2.0183

 **********************************************************************

            Population analysis using the SCF density.

 **********************************************************************

 Orbital symmetries:
       Occupied  (A) (A) (A) (A) (A) (A) (A) (A) (A) (A) (A) (A)
                 (A) (A) (A) (A) (A) (A) (A) (A) (A) (A) (A) (A)
                 (A) (A) (A) (A) (A) (A) (A) (A) (A) (A) (A) (A)
                 (A) (A) (A) (A) (A) (A) (A) (A) (A) (A) (A) (A)
                 (A) (A) (A) (A) (A) (A) (A) (A) (A) (A) (A) (A)
                 (A) (A) (A) (A) (A) (A) (A) (A) (A) (A) (A) (A)
                 (A) (A) (A) (A) (A) (A) (A) (A) (A) (A) (A) (A)
                 (A) (A) (A) (A) (A) (A) (A) (A) (A) (A) (A) (A)
                 (A) (A) (A) (A) (A) (A) (A) (A) (A) (A) (A) (A)
                 (A) (A) (A) (A) (A) (A) (A) (A) (A) (A) (A) (A)
                 (A) (A) (A) (A) (A) (A) (A) (A) (A) (A) (A) (A)
                 (A) (A) (A) (A) (A) (A) (A) (A) (A) (A) (A) (A)
                 (A) (A) (A) (A) (A) (A) (A) (A) (A) (A) (A) (A)
                 (A) (A) (A) (A) (A) (A) (A) (A) (A) (A) (A) (A)
                 (A) (A) (A) (A) (A) (A) (A) (A) (A) (A) (A) (A)
                 (A) (A) (A) (A) (A) (A) (A) (A) (A) (A) (A)
       Virtual   (A) (A) (A) (A) (A) (A) (A) (A) (A) (A) (A) (A)
                 (A) (A) (A) (A) (A) (A) (A) (A) (A) (A) (A) (A)
                 (A) (A) (A) (A) (A) (A) (A) (A) (A) (A) (A) (A)
                 (A) (A) (A) (A) (A) (A) (A) (A) (A) (A) (A) (A)
                 (A) (A) (A) (A) (A) (A) (A) (A) (A) (A) (A) (A)
                 (A) (A) (A) (A) (A) (A) (A) (A) (A) (A) (A) (A)
                 (A) (A) (A) (A) (A) (A) (A) (A) (A) (A) (A) (A)
                 (A) (A) (A) (A) (A) (A) (A) (A) (A) (A) (A) (A)
                 (A) (A) (A) (A) (A) (A) (A) (A) (A) (A) (A) (A)
                 (A) (A) (A) (A) (A) (A) (A) (A) (A) (A) (A) (A)
                 (A) (A) (A) (A) (A) (A) (A) (A) (A) (A) (A) (A)
                 (A) (A) (A) (A) (A) (A) (A) (A) (A) (A) (A) (A)
                 (A) (A) (A) (A) (A) (A) (A) (A) (A) (A) (A) (A)
                 (A) (A) (A) (A) (A) (A) (A) (A) (A) (A) (A) (A)
                 (A) (A) (A) (A) (A) (A) (A) (A) (A) (A) (A) (A)
                 (A) (A) (A) (A) (A) (A) (A) (A) (A) (A) (A) (A)
                 (A) (A) (A) (A) (A) (A) (A) (A) (A) (A) (A) (A)
                 (A) (A) (A) (A) (A) (A) (A) (A) (A) (A) (A) (A)
                 (A) (A) (A) (A) (A) (A) (A) (A) (A) (A) (A) (A)
                 (A) (A) (A) (A) (A) (A) (A) (A) (A) (A) (A) (A)
                 (A) (A) (A) (A) (A) (A) (A) (A) (A) (A) (A) (A)
                 (A) (A) (A) (A) (A) (A) (A) (A) (A) (A) (A) (A)
                 (A) (A) (A) (A) (A) (A) (A) (A) (A) (A) (A) (A)
                 (A) (A) (A) (A) (A) (A) (A) (A) (A) (A) (A) (A)
                 (A) (A) (A) (A) (A) (A) (A) (A) (A) (A) (A) (A)
                 (A) (A) (A) (A) (A) (A) (A) (A) (A) (A) (A) (A)
                 (A) (A) (A) (A) (A) (A) (A) (A) (A) (A) (A) (A)
                 (A) (A) (A) (A) (A) (A) (A) (A) (A) (A) (A) (A)
                 (A) (A) (A) (A) (A) (A) (A) (A) (A) (A) (A) (A)
                 (A) (A) (A) (A) (A) (A) (A) (A) (A) (A) (A) (A)
                 (A) (A) (A) (A) (A) (A) (A) (A) (A) (A) (A) (A)
                 (A) (A) (A) (A) (A) (A) (A) (A) (A) (A) (A) (A)
                 (A) (A) (A) (A) (A) (A) (A) (A) (A) (A) (A) (A)
                 (A) (A) (A) (A) (A) (A) (A) (A) (A) (A) (A) (A)
                 (A) (A) (A) (A) (A) (A) (A) (A) (A) (A) (A) (A)
                 (A) (A) (A) (A) (A) (A) (A) (A) (A) (A) (A) (A)
                 (A) (A) (A) (A) (A) (A) (A) (A) (A) (A) (A) (A)
                 (A) (A) (A) (A) (A) (A) (A) (A) (A) (A) (A) (A)
                 (A) (A) (A) (A) (A) (A) (A) (A) (A) (A) (A) (A)
                 (A) (A) (A) (A) (A) (A) (A) (A) (A) (A) (A) (A)
                 (A) (A) (A) (A) (A) (A) (A) (A) (A) (A) (A) (A)
                 (A) (A) (A) (A) (A) (A) (A) (A) (A) (A) (A) (A)
                 (A) (A) (A) (A) (A) (A) (A) (A) (A) (A) (A) (A)
                 (A) (A) (A) (A) (A) (A) (A) (A) (A) (A) (A) (A)
                 (A) (A) (A)
 The electronic state is 1-A.
 Alpha  occ. eigenvalues -- -453.58224 -88.88139 -88.81979 -77.12148 -57.30083
 Alpha  occ. eigenvalues --  -52.07651 -52.07535 -52.07319 -19.20218 -19.14989
 Alpha  occ. eigenvalues --  -19.14934 -19.14186 -19.12758 -19.12628 -19.11272
 Alpha  occ. eigenvalues --  -14.38173 -14.37787 -14.36293 -14.35362 -14.32028
 Alpha  occ. eigenvalues --  -14.31514 -10.33086 -10.31624 -10.29884 -10.29636
 Alpha  occ. eigenvalues --  -10.28743 -10.26010 -10.25598 -10.23867 -10.23400
 Alpha  occ. eigenvalues --  -10.23337 -10.22474 -10.22425 -10.21513 -10.21366
 Alpha  occ. eigenvalues --  -10.21351 -10.21266 -10.21163 -10.20924 -10.20601
 Alpha  occ. eigenvalues --  -10.19568 -10.19157 -10.18426 -10.18158 -10.18042
 Alpha  occ. eigenvalues --   -7.95292  -7.89421  -7.65053  -6.60080  -5.91702
 Alpha  occ. eigenvalues --   -5.91415  -5.90728  -5.85815  -5.85466  -5.84911
 Alpha  occ. eigenvalues --   -5.78074  -5.77645  -5.76864  -4.76219  -4.76202
 Alpha  occ. eigenvalues --   -4.76025  -4.18669  -2.32794  -2.31852  -2.31077
 Alpha  occ. eigenvalues --   -2.14162  -2.14147  -2.13496  -2.13150  -2.13024
 Alpha  occ. eigenvalues --   -1.11830  -1.06470  -1.04934  -1.04746  -1.03474
 Alpha  occ. eigenvalues --   -1.02800  -1.02324  -0.95839  -0.93981  -0.93348
 Alpha  occ. eigenvalues --   -0.92463  -0.90035  -0.89282  -0.81960  -0.81303
 Alpha  occ. eigenvalues --   -0.79451  -0.78898  -0.77939  -0.77303  -0.75701
 Alpha  occ. eigenvalues --   -0.75304  -0.74829  -0.73097  -0.72591  -0.70604
 Alpha  occ. eigenvalues --   -0.68727  -0.67610  -0.65635  -0.64520  -0.63650
 Alpha  occ. eigenvalues --   -0.63370  -0.62915  -0.62224  -0.61196  -0.60840
 Alpha  occ. eigenvalues --   -0.60154  -0.58762  -0.58640  -0.58414  -0.55937
 Alpha  occ. eigenvalues --   -0.55194  -0.53386  -0.52589  -0.51396  -0.51040
 Alpha  occ. eigenvalues --   -0.50579  -0.50427  -0.49525  -0.48933  -0.48902
 Alpha  occ. eigenvalues --   -0.48612  -0.47941  -0.47805  -0.47317  -0.47129
 Alpha  occ. eigenvalues --   -0.46557  -0.46159  -0.45870  -0.45817  -0.45614
 Alpha  occ. eigenvalues --   -0.45301  -0.45109  -0.44742  -0.44310  -0.43650
 Alpha  occ. eigenvalues --   -0.43408  -0.43236  -0.42843  -0.42549  -0.42395
 Alpha  occ. eigenvalues --   -0.42283  -0.42058  -0.41878  -0.41374  -0.40628
 Alpha  occ. eigenvalues --   -0.40461  -0.39955  -0.39905  -0.39203  -0.39162
 Alpha  occ. eigenvalues --   -0.38699  -0.38533  -0.38433  -0.38337  -0.38089
 Alpha  occ. eigenvalues --   -0.38014  -0.37648  -0.37270  -0.37162  -0.37023
 Alpha  occ. eigenvalues --   -0.36563  -0.35470  -0.35125  -0.34272  -0.34044
 Alpha  occ. eigenvalues --   -0.33588  -0.33476  -0.32948  -0.32527  -0.32083
 Alpha  occ. eigenvalues --   -0.31450  -0.30194  -0.30041  -0.29396  -0.29237
 Alpha  occ. eigenvalues --   -0.28753  -0.28323  -0.27451  -0.27208  -0.26501
 Alpha  occ. eigenvalues --   -0.26376  -0.26227  -0.25581  -0.25407  -0.25322
 Alpha  occ. eigenvalues --   -0.24586  -0.24420  -0.24246  -0.23548  -0.20349
 Alpha  occ. eigenvalues --   -0.18487
 Alpha virt. eigenvalues --   -0.12568  -0.02816  -0.02250  -0.01938  -0.00964
 Alpha virt. eigenvalues --   -0.00725  -0.00196   0.00134   0.00694   0.00918
 Alpha virt. eigenvalues --    0.03118   0.03380   0.03948   0.04859   0.05430
 Alpha virt. eigenvalues --    0.05655   0.06691   0.06856   0.07337   0.07876
 Alpha virt. eigenvalues --    0.08273   0.09333   0.09684   0.09730   0.09959
 Alpha virt. eigenvalues --    0.10407   0.10969   0.11374   0.11790   0.12040
 Alpha virt. eigenvalues --    0.12542   0.12842   0.12996   0.13455   0.13966
 Alpha virt. eigenvalues --    0.14130   0.14404   0.14528   0.14771   0.15105
 Alpha virt. eigenvalues --    0.15368   0.15474   0.15920   0.16069   0.16102
 Alpha virt. eigenvalues --    0.16433   0.17041   0.17167   0.17263   0.17729
 Alpha virt. eigenvalues --    0.17960   0.18190   0.18575   0.18698   0.19085
 Alpha virt. eigenvalues --    0.19258   0.19732   0.19824   0.19961   0.20274
 Alpha virt. eigenvalues --    0.20378   0.20815   0.21326   0.21545   0.21737
 Alpha virt. eigenvalues --    0.22404   0.22545   0.23083   0.23331   0.23419
 Alpha virt. eigenvalues --    0.23911   0.24135   0.24383   0.24577   0.24751
 Alpha virt. eigenvalues --    0.25630   0.25768   0.26515   0.26720   0.27155
 Alpha virt. eigenvalues --    0.28637   0.30073   0.31112   0.32412   0.32855
 Alpha virt. eigenvalues --    0.33065   0.33336   0.34089   0.34775   0.35043
 Alpha virt. eigenvalues --    0.35839   0.36562   0.37302   0.37519   0.38353
 Alpha virt. eigenvalues --    0.38608   0.39325   0.39991   0.40578   0.40735
 Alpha virt. eigenvalues --    0.41027   0.42106   0.42257   0.43242   0.43470
 Alpha virt. eigenvalues --    0.44285   0.44738   0.45243   0.46185   0.47159
 Alpha virt. eigenvalues --    0.47443   0.48118   0.49575   0.49758   0.49839
 Alpha virt. eigenvalues --    0.50045   0.50530   0.51278   0.51433   0.51808
 Alpha virt. eigenvalues --    0.52468   0.52843   0.53394   0.53888   0.54016
 Alpha virt. eigenvalues --    0.54160   0.54544   0.55464   0.55605   0.55804
 Alpha virt. eigenvalues --    0.56532   0.56589   0.57036   0.57320   0.57739
 Alpha virt. eigenvalues --    0.58010   0.58504   0.58672   0.59481   0.59591
 Alpha virt. eigenvalues --    0.60289   0.60514   0.60815   0.61111   0.61454
 Alpha virt. eigenvalues --    0.62046   0.62138   0.62296   0.62911   0.63247
 Alpha virt. eigenvalues --    0.63967   0.64186   0.65076   0.65277   0.65511
 Alpha virt. eigenvalues --    0.66043   0.66113   0.66566   0.67029   0.67663
 Alpha virt. eigenvalues --    0.67893   0.68530   0.68647   0.68983   0.69321
 Alpha virt. eigenvalues --    0.69872   0.70379   0.71251   0.71573   0.71883
 Alpha virt. eigenvalues --    0.71907   0.72201   0.72606   0.73648   0.73869
 Alpha virt. eigenvalues --    0.74391   0.74815   0.75312   0.75922   0.76303
 Alpha virt. eigenvalues --    0.76724   0.77167   0.77463   0.78408   0.78837
 Alpha virt. eigenvalues --    0.79219   0.80371   0.80652   0.80697   0.81402
 Alpha virt. eigenvalues --    0.81639   0.81941   0.82632   0.83064   0.83190
 Alpha virt. eigenvalues --    0.83712   0.83916   0.84164   0.84350   0.84661
 Alpha virt. eigenvalues --    0.85088   0.85267   0.85770   0.85904   0.86179
 Alpha virt. eigenvalues --    0.86370   0.86610   0.86790   0.87199   0.87287
 Alpha virt. eigenvalues --    0.87749   0.88330   0.88591   0.88684   0.88911
 Alpha virt. eigenvalues --    0.89029   0.89219   0.89640   0.89796   0.90050
 Alpha virt. eigenvalues --    0.90159   0.90849   0.91162   0.91614   0.91799
 Alpha virt. eigenvalues --    0.92122   0.92392   0.92746   0.93102   0.93255
 Alpha virt. eigenvalues --    0.93532   0.93932   0.94334   0.94661   0.94727
 Alpha virt. eigenvalues --    0.95276   0.95586   0.96065   0.96542   0.96831
 Alpha virt. eigenvalues --    0.96926   0.97213   0.97811   0.98367   0.98616
 Alpha virt. eigenvalues --    0.99234   0.99411   0.99708   1.00072   1.00128
 Alpha virt. eigenvalues --    1.00786   1.01318   1.01705   1.02235   1.02622
 Alpha virt. eigenvalues --    1.02866   1.02983   1.03967   1.04531   1.05226
 Alpha virt. eigenvalues --    1.05509   1.06315   1.06610   1.06980   1.07621
 Alpha virt. eigenvalues --    1.08605   1.08777   1.09511   1.10223   1.11399
 Alpha virt. eigenvalues --    1.11918   1.12098   1.13174   1.13237   1.14210
 Alpha virt. eigenvalues --    1.14720   1.15237   1.15801   1.16870   1.17468
 Alpha virt. eigenvalues --    1.18162   1.18467   1.18528   1.19620   1.21050
 Alpha virt. eigenvalues --    1.21545   1.23040   1.23285   1.24778   1.25260
 Alpha virt. eigenvalues --    1.26009   1.26605   1.27513   1.27690   1.28279
 Alpha virt. eigenvalues --    1.29783   1.31563   1.32952   1.34104   1.35653
 Alpha virt. eigenvalues --    1.36000   1.36460   1.36800   1.37341   1.37477
 Alpha virt. eigenvalues --    1.38947   1.39436   1.39949   1.41215   1.41995
 Alpha virt. eigenvalues --    1.43195   1.44042   1.45578   1.45740   1.46952
 Alpha virt. eigenvalues --    1.47269   1.49210   1.49539   1.50017   1.51184
 Alpha virt. eigenvalues --    1.51436   1.51752   1.51916   1.52006   1.52329
 Alpha virt. eigenvalues --    1.53994   1.54509   1.55409   1.55697   1.56924
 Alpha virt. eigenvalues --    1.57338   1.58303   1.58871   1.59165   1.60985
 Alpha virt. eigenvalues --    1.61912   1.62544   1.63361   1.63471   1.64016
 Alpha virt. eigenvalues --    1.65650   1.66263   1.68976   1.69439   1.69691
 Alpha virt. eigenvalues --    1.69988   1.70236   1.71058   1.72059   1.73451
 Alpha virt. eigenvalues --    1.74426   1.75548   1.76307   1.76626   1.77431
 Alpha virt. eigenvalues --    1.77613   1.78554   1.79078   1.79895   1.80402
 Alpha virt. eigenvalues --    1.81293   1.81724   1.81872   1.82195   1.82483
 Alpha virt. eigenvalues --    1.82787   1.83474   1.84012   1.84478   1.85651
 Alpha virt. eigenvalues --    1.86138   1.87731   1.88241   1.89468   1.89887
[...]
 .00000374,0.00000393,0.00000174,0.00000402,-0.00000287,0.00000326,0.00
 000314,-0.00000462,0.00000026,0.00000005,-0.00000170,-0.00000896,-0.00
 001579,0.00004726,-0.00001396,0.00001258,0.00003835,0.00000860,0.00006
 581,-0.00004860,0.00001298,-0.00001414,-0.00001599,-0.00023353,0.00058
 570,0.00071257,0.00000129,-0.00000024,-0.00000598,0.00000075,-0.000000
 04,0.00000027,0.00000079,0.00000547,0.00001797,-0.00000186,-0.00000424
 ,-0.00000802,0.00000183,0.00000446,0.00000993,0.00000176,-0.00000432,-
 0.00001771,-0.00000364,-0.00000174,-0.00001288,0.00000159,0.00000253,0
 .00000085,0.00001120,-0.00002211,0.00002884,0.00000405,0.00000968,-0.0
 0002104,-0.00002433,0.00001167,-0.00001842,-0.00000172,-0.00000568,0.0
 0000843,0.00001476,0.00000091,0.00000111,-0.00001115,-0.00000049,-0.00
 000322,0.00001777,0.00000658,-0.00000412,0.00000962,0.00004740,-0.0000
 1079,-0.00001933,0.00000136,-0.00001473,0.00000804,-0.00000205,-0.0000
 1219,0.00001697,0.00000370,0.00002565,-0.00001021,0.00001269,0.0000505
 0,0.00000822,-0.00000762,-0.00004109,0.00000335,-0.00000407,-0.0000144
 2,-0.00000299,0.00000062,0.00000051,0.00000351,0.00000243,0.00000989,-
 0.00000263,-0.00000236,-0.00000802,0.00000121,-0.00000111,-0.00000376,
 -0.00000104,0.00000272,-0.00000339,-0.00000185,-0.00000136,0.00000236,
 -0.00000350,0.00000472,0.00000752,0.00000106,-0.00000081,0.00000011,-0
 .00000186,0.00000024,0.00000360,0.00000020,-0.00000039,0.00000044,-0.0
 0000131,0.00000008,-0.00000042,0.00000046,-0.00000090,-0.00000060,0.00
 000325,-0.00000114,0.00000080,-0.00000611,-0.00000010,-0.00000061,0.00
 000080,-0.00000699,-0.00000598,-0.00000234,0.00000134,-0.00000236,0.00
 000990,-0.00000445,0.00000947,-0.00000148,0.00000235,-0.00000499,0.000
 00057,-0.00000395,0.00000424,0.00000045,0.00000094,-0.00000083,0.00000
 501,-0.00000537,0.00001374,0.00000060,0.00000117,0.00000010,0.00000248
 ,-0.00000011,0.00000086,-0.00000336,0.00000124,0.00000320,-0.00000034,
 0.00000051,0.00000066,-0.00010930,-0.00003467,0.00003747,-0.00327536,-
 0.00283265,0.00285558,-0.00058934,-0.00026935,-0.00044955,0.00384510,0
 .00938426,0.02522075,-0.00204912,-0.00523314,-0.00154145,0.00008066,0.
 00059099,-0.00026598,-0.05616862,0.00223661,0.01946792,0.00023643,0.00
 086886,-0.00097652,0.00005357,-0.00055181,-0.00092302,0.06199724,-0.00
 006936,0.00011589,-0.00001513,0.00005290,0.00001951,-0.00009086,-0.000
 02189,-0.00000077,0.00002581,-0.00000157,-0.00001045,-0.00000078,0.000
 01384,0.00000653,0.00000807,-0.00004198,-0.00001420,0.00000736,0.00000
 801,-0.00000404,0.00001273,-0.00001665,0.00002603,-0.00002711,-0.00002
 700,-0.00001259,0.00003120,0.00000867,-0.00000259,-0.00000468,-0.00000
 394,0.00000836,-0.00000005,-0.00000845,0.00000408,-0.00000321,0.000005
 57,0.00000339,-0.00002074,-0.00000947,-0.00000209,0.00001905,0.0000050
 6,-0.00001261,0.00000030,0.00002063,-0.00000596,-0.00001027,-0.0000013
 6,-0.00000493,0.00000458,-0.00000485,-0.00000224,0.00000721,-0.0000008
 0,0.00000228,0.00000160,0.00003578,0.00000069,-0.00012744,0.00000351,-
 0.00000903,-0.00000884,0.00003077,-0.00007842,0.00009487,-0.00001990,0
 .00002801,0.00004146,0.00017963,-0.00041712,0.00037215,-0.00000116,-0.
 00000091,0.00000835,-0.00000156,-0.00000014,-0.00000087,0.00000010,-0.
 00000089,-0.00001851,0.00000189,-0.00000055,0.00000927,-0.00000184,-0.
 00000175,-0.00001231,-0.00000212,0.00000250,0.00002059,0.00000474,-0.0
 0000039,0.00001267,-0.00000190,-0.00000164,-0.00000088,-0.00001394,0.0
 0002892,-0.00003724,-0.00000506,-0.00001408,0.00002684,0.00003024,-0.0
 0001513,0.00002354,0.00000204,0.00000735,-0.00000953,-0.00001498,-0.00
 000322,0.00000216,0.00001150,0.00000087,0.00000168,-0.00001997,0.00001
 079,0.00000833,-0.00004152,-0.00012520,0.00000817,0.00001988,-0.000004
 64,0.00001124,-0.00001181,0.00000208,0.00000840,-0.00002301,0.00002520
 ,-0.00001979,0.00000104,-0.00000809,-0.00003539,-0.00000052,-0.0000010
 1,0.00002837,0.00000232,0.00000133,0.00001112,0.00000089,0.00000034,0.
 00000168,-0.00000931,-0.00000088,-0.00000693,0.00000554,0.00000063,0.0
 0000623,0.00000331,0.00000010,0.00000127,0.00000111,-0.00000300,0.0000
 0439,0.00000105,0.00000166,-0.00000216,0.00000432,-0.00000453,-0.00000
 948,-0.00000090,0.00000038,-0.00000047,0.00000143,0.00000028,-0.000003
 83,0.00000016,0.00000098,-0.00000157,0.00000158,-0.00000029,0.00000071
 ,-0.00000066,0.00000112,0.00000051,-0.00000414,0.00000167,-0.00000084,
 0.00000306,0.00000242,0.00000204,0.00000308,0.00000830,0.00000449,0.00
 000273,-0.00000179,0.00000233,-0.00001321,0.00000542,-0.00001201,0.000
 01049,-0.00000160,0.00001208,0.00000256,0.00000134,-0.00000337,-0.0000
 0064,-0.00000075,0.00000083,-0.00000495,0.00000657,-0.00001511,-0.0000
 0037,-0.00000083,-0.00000013,-0.00000189,0.00000020,-0.00000146,0.0000
 0027,0.00000125,-0.00000298,-0.00000072,0.00000027,-0.00000031,0.00005
 300,0.00008376,-0.00002124,-0.00249083,0.00600339,-0.00147033,-0.00011
 852,-0.00032350,0.00017511,-0.00106314,0.00645521,0.00169770,-0.004525
 77,0.00687245,-0.00331431,0.00060672,-0.00130400,0.00043489,0.00149327
 ,-0.08041731,-0.09609904,0.00124884,-0.00228315,0.00099431,-0.00012344
 ,0.00023728,-0.00072117,0.00870848,0.07642924,0.00003007,0.00017989,-0
 .00004009,0.00003166,0.00011157,-0.00010250,-0.00001661,-0.00001733,0.
 00003324,-0.00000898,-0.00001506,-0.00000224,0.00001399,0.00000860,0.0
 0000444,-0.00004409,-0.00002879,0.00001288,0.00000516,-0.00000198,0.00
 002294,0.00001359,0.00002239,-0.00002198,-0.00002713,-0.00001632,0.000
 02180,0.00000274,-0.00000129,-0.00000575,-0.00000309,0.00001084,-0.000
 00194,-0.00000075,0.00001598,0.00000811,-0.00000097,0.00001366,-0.0000
 0809,-0.00000095,0.00000222,0.00001164,0.00000039,-0.00000743,-0.00000
 118,0.00002320,-0.00000086,-0.00000890,0.00000145,-0.00000830,0.000005
 06,-0.00000720,-0.00000119,0.00000659,-0.00000279,0.00000146,0.0000005
 7,0.00002425,-0.00000403,-0.00006810,-0.00000537,-0.00000792,-0.000033
 76,-0.00001684,-0.00002769,0.00005583,-0.00000784,0.00001009,0.0000218
 2,0.00013753,-0.00026161,-0.00073200,0.00000515,-0.00000201,0.00002230
 ,-0.00000640,0.00000073,-0.00000592,-0.00000731,-0.00001955,-0.0000435
 1,0.00001484,0.00001342,0.00001999,-0.00002431,-0.00001025,-0.00003410
 ,0.00002396,0.00000944,0.00004722,0.00002097,0.00000231,0.00003537,-0.
 00000742,-0.00000462,-0.00000231,-0.00005295,0.00007526,-0.00009245,0.
 00000217,-0.00003931,0.00006141,0.00008863,-0.00004071,0.00005821,0.00
 000795,0.00001908,-0.00002469,-0.00006078,-0.00002219,0.00002648,0.000
 04756,0.00001800,-0.00001017,-0.00006990,-0.00000258,0.00001038,-0.000
 07075,-0.00032946,-0.00000773,0.00006593,-0.00001208,0.00002084,-0.000
 03369,0.00001542,0.00002810,-0.00004826,0.00007109,-0.00004797,-0.0000
 3950,-0.00005781,-0.00009321,0.00002333,0.00002282,0.00006361,0.000032
 87,0.00003513,0.00003316,0.,-0.00000644,0.00001655,-0.00004194,-0.0000
 0898,-0.00001980,0.00002388,0.00000881,0.00001826,0.00001903,0.0000045
 8,-0.00000003,0.00000231,-0.00000479,0.00000837,0.00000215,0.00000297,
 -0.00000387,-0.00000041,-0.00000773,-0.00001606,-0.00000234,0.00000153
 ,-0.00000117,0.00000128,0.00000011,-0.00000989,0.00000145,0.00000248,-
 0.00000524,0.00000412,-0.00000026,0.00000316,-0.00000167,0.00000422,0.
 00000033,-0.00001553,0.00000454,-0.00000233,0.00002631,0.00000850,0.00
 000244,0.00001177,0.00001680,0.00001284,0.00001127,-0.00000516,0.00000
 817,-0.00004254,0.00001745,-0.00002959,0.00003323,-0.00000547,0.000032
 27,0.00000496,0.00000056,-0.00001992,0.00000152,-0.00000343,0.00000074
 ,-0.00002276,0.00001372,-0.00003575,0.00000034,-0.00000155,-0.00000428
 ,-0.00000622,-0.00000034,-0.00000523,0.00000074,-0.00000590,-0.0000104
 0,-0.00000348,-0.00000288,0.00000047,0.00002342,0.00020300,0.00004391,
 0.00360138,-0.00140607,0.00113060,0.00047519,0.00043866,0.00021126,-0.
 00126596,-0.00806162,-0.01223576,-0.00006031,-0.00280797,0.00338772,-0
 .00012667,0.00052324,-0.00033549,0.01865116,-0.09624530,-0.29137336,-0
 .00007230,0.00133272,0.00006578,0.00013590,-0.00030066,-0.00025677,-0.
 01166251,0.11209419,0.30851668,-0.00026487,-0.00098614,0.00016138,-0.0
 0038157,-0.00029898,0.00044770,0.00004295,0.00012726,-0.00027114,0.000
 06677,0.00009474,0.00005344,0.00000917,-0.00005576,-0.00000129,-0.0000
 0923,0.00018870,-0.00005539,0.00006832,0.00000257,-0.00007880,-0.00000
 932,0.00009455,0.00005271,0.00016843,0.00011721,-0.00013207,0.00001372
 ,-0.00001557,0.00002376,0.00002289,-0.00006488,0.00002785,-0.00006837,
 0.00003819,0.00008733,0.00000799,-0.00002135,-0.00006431,-0.00001241,-
 0.00001293,-0.00004358,0.00003387,0.00002811,0.00003210,-0.00009152,-0
 .00000574,0.00001013,-0.00000081,0.00002946,-0.00001873,0.00001230,0.0
 0000001,-0.00002925,0.00001357,0.00001629,0.00001013,-0.00009050,-0.00
 013665,0.00018783,0.00008853,-0.00004404,0.00009097,-0.00004414,0.0000
 7721,-0.00020344,0.00007059,0.00001327,-0.00004813,-0.00276384,0.00182
 873,0.00303725,-0.00002536,0.00001562,-0.00008154,0.00002963,-0.000005
 20,0.00003042,0.00002597,0.00002666,0.00012227,-0.00006071,-0.00000429
 ,-0.00006428,0.00008929,0.00001137,0.00010302,-0.00007457,0.00000290,-
 0.00015089,-0.00009396,0.00001977,-0.00010113,0.00002738,-0.00000036,0
 .00000017,0.00020628,-0.00033789,0.00039770,0.00001365,0.00019286,-0.0
 0025362,-0.00037728,0.00019485,-0.00024600,-0.00002675,-0.00009406,0.0
 0010332,0.00028487,0.00004809,-0.00017815,-0.00021117,-0.00005722,0.00
 007696,0.00025054,-0.00018419,-0.00012807,0.00071388,0.00190902,-0.000
 11544,-0.00029544,0.00010289,-0.00003268,0.00015994,-0.00005852,-0.000
 08258,0.00027856,-0.00040818,0.00019277,0.00026617,0.00022776,0.000222
 71,-0.00018026,-0.00004093,-0.00011566,-0.00020369,-0.00014789,-0.0001
 0138,0.00002450,0.00002500,-0.00009703,0.00022324,0.00002267,0.0000312
 7,-0.00012016,-0.00002287,-0.00004130,-0.00012502,-0.00001142,0.000033
 52,-0.00000663,0.00001108,-0.00002792,0.00000309,-0.00000912,0.0000110
 5,-0.00001298,0.00001364,0.00005138,0.00000482,-0.00000013,0.00000572,
 0.00000450,-0.00000387,0.00002932,-0.00000818,-0.00001210,0.00002563,-
 0.00001604,0.00000296,-0.00001595,0.00000812,-0.00001833,0.00000220,0.
 00006974,-0.00002176,0.00000940,-0.00004599,-0.00003995,-0.00003852,-0
 .00006930,-0.00010753,-0.00006306,-0.00004930,0.00002666,-0.00003060,0
 .00018065,-0.00008062,0.00013862,-0.00015200,0.00002759,-0.00018534,-0
 .00002002,-0.00001990,0.00004787,-0.00000381,0.00001530,-0.00000450,0.
 00008697,-0.00006701,0.00013939,-0.00000462,0.00000149,0.00002098,0.00
 001962,0.00000106,0.00002532,0.00002133,0.00000938,0.00003723,0.000023
 26,0.00000721,-0.00000862,-0.00018147,-0.00132079,-0.00004099,-0.01326
 025,-0.01419797,-0.03447261,0.03974389,0.01296794,0.01860807,-0.064243
 75,-0.01855331,0.03407937,-0.11738730,-0.00984935,0.02129700,-0.003006
 28,-0.00223992,0.00449706,-0.26922556,-0.10383160,-0.06089506,-0.00284
 878,-0.00196035,0.00471915,0.00570540,-0.00812760,-0.02908793,-0.00388
 448,-0.00386493,-0.00976030,0.43087331,0.00029998,0.00018912,0.0000022
 5,-0.00029919,-0.00004849,0.00020191,0.00001808,0.00001544,-0.00010464
 ,0.00001078,0.00003628,0.00002657,0.00002098,-0.00002602,-0.00000697,-
 0.00003500,0.00014772,-0.00012419,-0.00000503,0.00007326,-0.00002918,-
 0.00000960,-0.00005059,0.00021725,0.00007658,0.00007555,-0.00009578,-0
 .00000144,-0.00001058,0.00001517,0.00001928,-0.00003344,0.00000340,-0.
 00001023,0.00007741,0.00008894,-0.00002480,0.00000093,-0.00004035,0.00
 000207,0.00000736,-0.00002032,0.00000600,0.00000710,0.00001673,-0.0000
 2708,0.00000776,0.00000944,0.00001018,0.00000211,-0.00000672,-0.000005
 34,0.00000086,-0.00001844,-0.00000119,0.00001245,0.00000463,-0.0001681
 9,-0.00007404,0.00017972,0.00016038,-0.00004250,0.00000001,-0.00010192
 ,0.00003086,-0.00017624,0.00009377,0.00002583,-0.00006444,0.00114110,-
 0.00169373,0.00245414,0.00000543,0.00000329,-0.00000183,0.00000082,-0.
 00000038,0.00000107,-0.00000648,-0.00002732,-0.00000050,0.00000513,0.0
 0002628,-0.00000429,-0.00001685,-0.00001279,-0.00000913,0.00003647,0.0
 0001735,-0.00000237,-0.00000052,0.00001247,0.00000557,-0.00000125,-0.0
 0000563,-0.00000297,-0.00000526,-0.00004106,0.00004804,0.00003061,0.00
 002592,-0.00003367,-0.00002916,0.00002501,-0.00002665,-0.00000005,-0.0
 0001118,0.00001507,0.00000415,-0.00001086,-0.00002183,0.00000024,0.000
 01219,0.00000528,0.00000664,0.00004097,0.00001474,0.00002682,0.0000918
 3,-0.00006282,-0.00001346,0.00002535,0.00000795,0.00001145,-0.00001908
 ,-0.00001208,-0.00003771,-0.00005146,-0.00000775,0.00000808,-0.0000055
 1,-0.00000640,-0.00001280,0.00002502,0.00000654,-0.00001009,0.00000899
 ,-0.00000022,0.00000461,-0.00000507,-0.00000373,0.00001199,-0.00000608
 ,-0.00000607,-0.00000574,0.00000593,0.00000333,-0.00000930,0.00000423,
 0.00000510,0.00000009,0.00000047,-0.00000273,0.00000363,-0.00000060,0.
 00000155,-0.00002127,-0.00000081,0.00000859,-0.00000128,0.00000222,0.0
 0000065,0.00000052,-0.00000142,-0.00000077,0.,-0.00000131,0.00000152,-
 0.00000121,0.00000112,-0.00000091,0.00000158,-0.00000052,-0.00000005,0
 .00000229,-0.00000196,0.00000104,-0.00001880,-0.00000346,-0.00000258,-
 0.00000062,-0.00000508,-0.00000965,-0.00000048,0.00000225,-0.00000235,
 0.00000220,-0.00001176,0.00001639,-0.00001457,0.00002908,-0.00001723,-
 0.00001225,-0.00001372,-0.00001026,0.00000420,-0.00000098,0.00000069,0
 .00000286,-0.00001214,0.00001561,0.00000010,0.00000021,-0.00000044,-0.
 00000070,-0.00000123,0.00000164,0.00000571,-0.00000880,0.00000026,0.00
 000172,-0.00000332,-0.00000065,0.00022341,-0.00020645,-0.00011353,-0.0
 1551199,-0.02581276,-0.02547483,0.03616209,0.02636209,-0.02218323,-0.0
 4113182,0.01856716,0.02857267,-0.01969422,-0.10824112,-0.08736607,-0.0
 0226246,0.00698974,-0.00139271,-0.09304937,-0.12476976,-0.05215698,-0.
 00230038,0.00680921,-0.00173732,0.00106344,-0.01062033,-0.01666175,-0.
 01342753,-0.01131177,-0.00552253,0.14880117,0.22340670,0.00035597,0.00
 096981,0.00025491,0.00007456,0.00050093,-0.00076249,-0.00014729,-0.000
 07500,0.00017627,-0.00001475,-0.00009617,-0.00000473,0.00005097,0.0000
 3880,0.00001786,-0.00008742,-0.00045394,0.00038114,0.00002820,-0.00003
 859,0.00011716,0.00040456,0.00009811,-0.00038844,-0.00011157,-0.000033
 02,0.00017581,0.00002135,-0.00000769,-0.00002532,-0.00004586,0.0000620
 1,-0.00001273,0.00018366,-0.00002406,-0.00017253,0.00001019,0.00004742
 ,-0.00009689,-0.00010126,0.00004827,0.00017387,-0.00002100,-0.00003668
 ,0.00005189,0.00007228,-0.00001326,-0.00004021,-0.00000340,-0.00001804
 ,0.00001844,-0.00001464,-0.00000743,0.00003760,-0.00000604,0.00000177,
 -0.00000018,-0.00018359,0.00001620,-0.00000759,0.00011045,-0.00007204,
 -0.00000010,0.00003318,0.00006533,0.00006630,-0.00000041,0.00003342,-0
 .00006301,0.00345125,0.00071527,-0.00080426,0.00001022,-0.00000817,0.0
 0006402,-0.00001827,0.00000201,-0.00001677,-0.00001466,-0.00003458,-0.
 00012045,0.00003627,0.00001832,0.00005861,-0.00005520,-0.00001916,-0.0
 0009000,0.00004261,0.00001332,0.00013317,0.00005643,-0.00000164,0.0000
 9406,-0.00001950,-0.00000851,-0.00000525,-0.00014185,0.00023257,-0.000
 28517,-0.00001568,-0.00012495,0.00019205,0.00025582,-0.00012971,0.0001
 7562,0.00002458,0.00006903,-0.00007809,-0.00015807,-0.00006141,0.00008
 215,0.00012614,0.00004318,-0.00002931,-0.00017918,-0.00000052,0.000034
 34,-0.00029544,-0.00100653,-0.00008740,0.00017819,-0.00004964,0.000049
 81,-0.00010179,0.00005461,0.00005393,-0.00013906,0.00028364,-0.0000997
 3,-0.00011834,-0.00014111,-0.00023405,0.00007397,0.00004052,0.00016001
 ,0.00009361,0.00008272,0.00008491,-0.00000262,-0.00001295,0.00004563,-
 0.00012045,-0.00001946,-0.00005038,0.00006817,0.00001885,0.00004774,0.
 00005685,0.00000898,-0.00000286,0.00000633,-0.00001359,0.00002551,0.00
 000310,0.00000873,-0.00001138,0.00001514,-0.00002053,-0.00005042,-0.00
 000547,0.00000262,-0.00000384,0.00000331,0.00000145,-0.00002708,0.0000
 0417,0.00000793,-0.00001593,0.00001186,-0.00000150,0.00000907,-0.00000
 582,0.00001167,0.00000131,-0.00004326,0.00001357,-0.00000716,0.0000754
 5,0.00003394,0.00000757,0.00003489,0.00004595,0.00003129,0.00003077,-0
 .00001627,0.00002339,-0.00011416,0.00005797,-0.00008821,0.00011762,-0.
 00001280,0.00008786,-0.00000035,-0.00000464,-0.00008382,0.00000891,-0.
 00001118,0.00000608,-0.00006361,0.00004510,-0.00010653,0.00000083,-0.0
 0000427,-0.00001063,-0.00001593,-0.00000006,-0.00001520,-0.00000317,-0
 .00000914,-0.00002790,-0.00001066,-0.00000501,0.00000138,-0.00015940,0
 .00047784,0.00029408,-0.03495405,-0.02460457,-0.04013673,0.07387201,-0
 .00165960,-0.05112651,-0.02189694,0.00794259,0.06189987,-0.00313597,-0
 .09438616,-0.30144153,0.00463494,-0.00163501,-0.00011738,-0.03626203,-
 0.04424636,-0.13638377,0.00459155,-0.00153781,-0.00024901,-0.00597257,
 -0.00893483,-0.01886501,-0.03255545,-0.01410954,-0.00833803,0.04808581
 ,0.18159271,0.49544933\\0.00000105,0.00000137,-0.00000019,0.00000140,0
 .00000333,0.00000240,-0.00000155,0.00000222,-0.00000034,-0.00000213,0.
 00000335,0.00000064,-0.00000137,0.00000175,0.00000020,-0.00000002,0.00
 000212,-0.00000058,-0.00000075,0.00000173,0.00000005,-0.00000050,0.000
 00268,-0.00000066,-0.00000075,0.00000029,-0.00000082,-0.00000224,0.000
 00078,-0.00000025,-0.00000200,0.00000085,-0.00000032,-0.00000084,0.000
 00330,-0.00000041,-0.00000071,0.00000361,0.00000025,-0.00000058,0.0000
 0302,0.00000006,-0.00000135,0.00000338,0.00000005,-0.00000172,0.000001
 28,0.00000044,-0.00000215,0.00000074,-0.00000015,-0.00000233,0.0000019
 6,0.00000010,-0.00000255,0.00000142,-0.00000007,-0.00000085,0.00000203
 ,-0.00000004,0.00000106,0.00000200,0.00000032,0.00000012,0.00000241,-0
 .00000010,0.00000006,0.00000141,0.00000099,0.00000136,0.00000136,0.000
 00040,-0.00000069,-0.00000318,-0.00000014,-0.00000136,-0.00000262,0.00
 000073,0.00000069,-0.00000222,-0.00000004,-0.00000003,-0.00000287,-0.0
 0000007,-0.00000008,-0.00000125,-0.00000013,-0.00000130,-0.00000125,0.
 00000031,-0.00000056,-0.00000239,-0.00000017,-0.00000159,-0.00000231,0
 .00000005,-0.00000165,-0.00000167,-0.00000045,-0.00000193,-0.00000150,
 0.00000018,-0.00000072,-0.00000051,0.00000083,-0.00000078,-0.00000096,
 -0.00000019,0.00000059,-0.00000154,-0.00000046,0.00000096,-0.00000217,
 0.00000059,-0.00000061,-0.00000115,0.00000109,-0.00000180,0.00000016,-
 0.00000075,-0.00000067,-0.00000123,-0.00000083,0.00000130,-0.00000106,
 0.00000027,0.00000077,0.00000037,-0.00000060,0.00000178,-0.00000138,-0
 .00000058,0.00000135,-0.00000096,-0.00000005,0.00000265,-0.00000466,0.
 00000060,0.00000191,-0.00000231,-0.00000032,0.00000199,-0.00000382,-0.
 00000017,0.00000205,-0.00000245,-0.00000014,0.00000174,-0.00000427,0.,
 -0.00000082,-0.00000076,0.00000022,0.00000028,-0.00000139,-0.00000017,
 -0.00000028,-0.00000075,-0.00000089,-0.00000166,-0.00000212,-0.0000004
 7,-0.00000022,-0.00000280,0.00000009,-0.00000079,-0.00000303,-0.000000
 09,-0.00000204,-0.00000235,0.00000046,-0.00000154,-0.00000284,0.,-0.00
 000098,-0.00000267,-0.00000022,-0.00000095,-0.00000042,-0.00000026,-0.
 00000028,-0.00000067,0.00000015,-0.00000132,-0.00000181,-0.00000042,-0
 .00000150,-0.00000077,-0.00000024,0.00000200,-0.00000022,-0.00000005,0
 .00000108,-0.00000012,0.00000006,0.00000136,-0.00000152,-0.00000010,0.
 00000077,-0.00000097,0.00000051,0.00000223,-0.00000224,0.00000025,0.00
 000118,-0.00000206,-0.00000090,0.00000143,-0.00000058,-0.00000020,0.00
 000189,-0.00000431,-0.00000018,0.00000161,0.00000076,0.00000030,0.0000
 0125,0.00000234,-0.00000041,0.00000158,0.00000323,-0.00000012,0.000001
 11,0.00000299,0.00000035,0.00000270,0.00000568,0.00000316,0.00000017,0
 .00000388,0.00000009,-0.00000122,0.00000109,-0.00000291,0.00000210,0.0
 0000235,0.00000013,0.00000057,0.00000473,0.00000059,0.00000115,0.00000
 310,-0.00000004,0.00000448,0.00000507,-0.00000020\\\@


 IT'S WHAT A FELLER THINKS HE KNOWS THAT HURTS HIM...
                    ------
           KIN HUBBARD
 Job cpu time:       1 days  2 hours 16 minutes 49.0 seconds.
 File lengths (MBytes):  RWF=   5264 Int=      0 D2E=      0 Chk=     41 Scr=      1
 Normal termination of Gaussian 09 at Fri Apr 28 12:25:02 2023.
