 Entering Gaussian System, Link 0=g09
 Input=au-1to3-ts-2-af22-c-term-level3-freq-se-new-p.com
 Output=au-1to3-ts-2-af22-c-term-level3-freq-se-new-p.log
 Initial command:
 /home/scr/programs/g09/l1.exe "/home/scr/guest2/Gau-1678.inp" -scrdir="/home/scr/guest2/"
 Entering Link 1 = /home/scr/programs/g09/l1.exe PID=      1679.
  
 Copyright (c) 1988,1990,1992,1993,1995,1998,2003,2009,2013,
            Gaussian, Inc.  All Rights Reserved.
  
 This is part of the Gaussian(R) 09 program.  It is based on
 the Gaussian(R) 03 system (copyright 2003, Gaussian, Inc.),
 the Gaussian(R) 98 system (copyright 1998, Gaussian, Inc.),
 the Gaussian(R) 94 system (copyright 1995, Gaussian, Inc.),
 the Gaussian 92(TM) system (copyright 1992, Gaussian, Inc.),
 the Gaussian 90(TM) system (copyright 1990, Gaussian, Inc.),
 the Gaussian 88(TM) system (copyright 1988, Gaussian, Inc.),
 the Gaussian 86(TM) system (copyright 1986, Carnegie Mellon
 University), and the Gaussian 82(TM) system (copyright 1983,
 Carnegie Mellon University). Gaussian is a federally registered
 trademark of Gaussian, Inc.
  
 This software contains proprietary and confidential information,
 including trade secrets, belonging to Gaussian, Inc.
  
 This software is provided under written license and may be
 used, copied, transmitted, or stored only in accord with that
 written license.
  
 The following legend is applicable only to US Government
 contracts under FAR:
  
                    RESTRICTED RIGHTS LEGEND
  
 Use, reproduction and disclosure by the US Government is
 subject to restrictions as set forth in subparagraphs (a)
 and (c) of the Commercial Computer Software - Restricted
 Rights clause in FAR 52.227-19.
  
 Gaussian, Inc.
 340 Quinnipiac St., Bldg. 40, Wallingford CT 06492
  
  
 ---------------------------------------------------------------
 Warning -- This program may not be used in any manner that
 competes with the business of Gaussian, Inc. or will provide
 assistance to any competitor of Gaussian, Inc.  The licensee
 of this program is prohibited from giving any competitor of
 Gaussian, Inc. access to this program.  By using this program,
 the user acknowledges that Gaussian, Inc. is engaged in the
 business of creating and licensing software in the field of
 computational chemistry and represents and warrants to the
 licensee that it is not a competitor of Gaussian, Inc. and that
 it will not use this program in any manner prohibited above.
 ---------------------------------------------------------------
  

 Cite this work as:
 Gaussian 09, Revision D.01,
 M. J. Frisch, G. W. Trucks, H. B. Schlegel, G. E. Scuseria, 
 M. A. Robb, J. R. Cheeseman, G. Scalmani, V. Barone, B. Mennucci, 
 G. A. Petersson, H. Nakatsuji, M. Caricato, X. Li, H. P. Hratchian, 
 A. F. Izmaylov, J. Bloino, G. Zheng, J. L. Sonnenberg, M. Hada, 
 M. Ehara, K. Toyota, R. Fukuda, J. Hasegawa, M. Ishida, T. Nakajima, 
 Y. Honda, O. Kitao, H. Nakai, T. Vreven, J. A. Montgomery, Jr., 
 J. E. Peralta, F. Ogliaro, M. Bearpark, J. J. Heyd, E. Brothers, 
 K. N. Kudin, V. N. Staroverov, T. Keith, R. Kobayashi, J. Normand, 
 K. Raghavachari, A. Rendell, J. C. Burant, S. S. Iyengar, J. Tomasi, 
 M. Cossi, N. Rega, J. M. Millam, M. Klene, J. E. Knox, J. B. Cross, 
 V. Bakken, C. Adamo, J. Jaramillo, R. Gomperts, R. E. Stratmann, 
 O. Yazyev, A. J. Austin, R. Cammi, C. Pomelli, J. W. Ochterski, 
 R. L. Martin, K. Morokuma, V. G. Zakrzewski, G. A. Voth, 
 P. Salvador, J. J. Dannenberg, S. Dapprich, A. D. Daniels, 
 O. Farkas, J. B. Foresman, J. V. Ortiz, J. Cioslowski, 
 and D. J. Fox, Gaussian, Inc., Wallingford CT, 2013.
 
 ******************************************
 Gaussian 09:  EM64L-G09RevD.01 24-Apr-2013
                 4-May-2023 
 ******************************************
 %mem=30000MB
 %nprocshared=8
 Will use up to    8 processors via shared memory.
 ----------------------------------------
 # opt freq=noraman b3lyp/gen pseudo=read
 ----------------------------------------
 1/14=-1,18=20,19=15,26=3,38=1/1,3;
 2/9=110,12=2,17=6,18=5,40=1/2;
 3/5=7,11=2,16=1,17=8,25=1,30=1,71=1,74=-5/1,2,3;
 4//1;
 5/5=2,38=5/2;
 6/7=2,8=2,9=2,10=2,28=1/1;
 7//1,2,3,16;
 1/14=-1,18=20,19=15,26=3/3(2);
 2/9=110/2;
 99//99;
 2/9=110/2;
 3/5=7,6=1,11=2,16=1,17=8,25=1,30=1,71=1,74=-5,82=7/1,2,3;
 4/5=5,16=3,69=1/1;
 5/5=2,38=5/2;
 7//1,2,3,16;
 1/14=-1,18=20,19=15,26=3/3(-5);
 2/9=110/2;
 6/7=2,8=2,9=2,10=2,19=2,28=1/1;
 99/9=1/99;
 -------------------
 Title Card Required
 -------------------
 Symbolic Z-matrix:
 Charge =  0 Multiplicity = 1
 Au                    1.77124  -0.08483  -0.56241 
 P                     2.72717   1.74739   0.77462 
 C                     3.84942   2.83829  -0.22331 
 H                     4.20843   3.6322    0.44338 
 H                     3.21729   3.31316  -0.9822 
 C                     3.71057   1.35483   2.30421 
 H                     4.24044   2.28236   2.5605 
 H                     4.47049   0.61827   2.02453 
 C                     1.35497   2.87379   1.31541 
 H                     0.59787   2.26421   1.82149 
 H                     0.89521   3.21639   0.38247 
 C                     5.02703   2.12066  -0.89475 
 H                     5.66447   1.60032  -0.17272 
 H                     4.67342   1.38704  -1.62614 
 H                     5.64824   2.84912  -1.42687 
 C                     1.75498   4.08197   2.17443 
 H                     0.868     4.69638   2.36271 
 H                     2.16238   3.78463   3.1453 
 H                     2.49345   4.71793   1.67556 
 C                     2.90127   0.85425   3.5099 
 H                     2.36988  -0.071     3.27672 
 H                     3.58402   0.65901   4.34419 
 H                     2.17054   1.59455   3.84969 
 S                     2.38892  -1.79681   1.03536 
 N                    -5.58097   1.90236   2.64424 
 C                    -4.48594   2.04848   1.68168 
 C                    -4.73063   1.18051   0.4321 
 O                    -5.12539   0.02162   0.56681 
 C                    -3.18524   1.61468   2.40391 
 O                    -2.00005   1.79574   1.63286 
 N                    -4.55159   1.69911  -0.82342 
 C                    -4.0614    3.01942  -1.19887 
 C                    -2.59458   3.27054  -0.81544 
 O                    -2.31403   4.11745   0.04204 
 N                    -1.63332   2.51765  -1.39734 
 C                    -1.74184   1.45872  -2.38021 
 C                    -2.23765   0.0809   -1.89731 
 O                    -2.86365  -0.60178  -2.70984 
 C                    -0.37402   1.26876  -3.11631 
 S                     1.15471   1.62392  -2.15716 
 N                    -1.86798  -0.35992  -0.66808 
 C                    -1.98484  -1.78115  -0.3742 
 C                    -0.61812  -2.51974  -0.41137 
 C                    -2.58069  -1.97323   1.02999 
 O                    -1.98558  -1.5354    2.01209 
 N                    -3.71897  -2.71189   1.14464 
 C                    -4.70677  -2.95157   0.1099 
 C                    -6.06024  -3.14135   0.76725 
 O                    -6.26463  -3.13768   1.96093 
 O                    -7.02337  -3.33969  -0.15432 
 H                    -3.1412    2.17895   3.34442 
 H                    -3.2295    0.54904   2.63878 
 H                    -1.93182   2.74312   1.40902 
 H                    -4.39616   3.10795   1.42052 
 H                    -5.80091   0.90779   2.70974 
 H                    -6.42175   2.34985   2.28163 
 H                    -4.64147   3.81145  -0.71794 
 H                    -4.19921   3.11857  -2.28045 
 H                    -4.68459   1.01466  -1.56072 
 H                    -0.31649   1.99362  -3.93577 
 H                    -0.34203   0.26519  -3.54478 
 H                    -2.46708   1.73961  -3.15165 
 H                    -0.68501   2.70257  -1.07468 
 H                    -0.77996  -3.58997  -0.57167 
 H                    -0.10856  -2.40383   0.5455 
 H                    -2.62682  -2.18675  -1.15434 
 H                    -1.56908   0.28383   0.06298 
 H                    -4.48812  -3.85205  -0.48072 
 H                    -4.79259  -2.10366  -0.57498 
 H                    -4.0931   -2.75145   2.08965 
 H                    -7.8583   -3.45282   0.33811 
 Se                    0.61584  -1.92467  -1.84835 
 C                     4.14331  -1.95641   0.89463 
 C                     4.88908  -1.64772  -0.25662 
 C                     4.85964  -2.47351   1.99159 
 C                     6.26958  -1.84682  -0.24661 
 H                     4.39817  -1.27807  -1.15176 
 C                     6.23803  -2.64052   1.88394 
 H                     4.34738  -2.73804   2.91191 
 H                     6.85327  -1.6072   -1.13529 
 H                     6.79773  -3.03822   2.72983 
 N                     6.95845  -2.32978   0.79563 
 

 GradGradGradGradGradGradGradGradGradGradGradGradGradGradGradGradGradGrad
 Berny optimization.
 Initialization pass.
                           ----------------------------
                           !    Initial Parameters    !
                           ! (Angstroms and Degrees)  !
 --------------------------                            --------------------------
 ! Name  Definition              Value          Derivative Info.                !
 --------------------------------------------------------------------------------
 ! R1    R(1,2)                  2.4614         estimate D2E/DX2                !
 ! R2    R(1,24)                 2.4218         estimate D2E/DX2                !
 ! R3    R(1,40)                 2.4173         estimate D2E/DX2                !
 ! R4    R(1,72)                 2.5246         estimate D2E/DX2                !
 ! R5    R(2,3)                  1.8562         estimate D2E/DX2                !
 ! R6    R(2,6)                  1.8603         estimate D2E/DX2                !
 ! R7    R(2,9)                  1.8559         estimate D2E/DX2                !
 ! R8    R(3,4)                  1.0971         estimate D2E/DX2                !
 ! R9    R(3,5)                  1.0959         estimate D2E/DX2                !
 ! R10   R(3,12)                 1.5338         estimate D2E/DX2                !
 ! R11   R(6,7)                  1.0985         estimate D2E/DX2                !
 ! R12   R(6,8)                  1.0946         estimate D2E/DX2                !
 ! R13   R(6,20)                 1.536          estimate D2E/DX2                !
 ! R14   R(9,10)                 1.0959         estimate D2E/DX2                !
 ! R15   R(9,11)                 1.0951         estimate D2E/DX2                !
 ! R16   R(9,16)                 1.5355         estimate D2E/DX2                !
 ! R17   R(12,13)                1.0947         estimate D2E/DX2                !
 ! R18   R(12,14)                1.0946         estimate D2E/DX2                !
 ! R19   R(12,15)                1.0953         estimate D2E/DX2                !
 ! R20   R(16,17)                1.0953         estimate D2E/DX2                !
 ! R21   R(16,18)                1.0941         estimate D2E/DX2                !
 ! R22   R(16,19)                1.0948         estimate D2E/DX2                !
 ! R23   R(20,21)                1.0922         estimate D2E/DX2                !
 ! R24   R(20,22)                1.0956         estimate D2E/DX2                !
 ! R25   R(20,23)                1.0943         estimate D2E/DX2                !
 ! R26   R(24,73)                1.7672         estimate D2E/DX2                !
 ! R27   R(25,26)                1.4653         estimate D2E/DX2                !
 ! R28   R(25,55)                1.0207         estimate D2E/DX2                !
 ! R29   R(25,56)                1.0191         estimate D2E/DX2                !
 ! R30   R(26,27)                1.541          estimate D2E/DX2                !
 ! R31   R(26,29)                1.5497         estimate D2E/DX2                !
 ! R32   R(26,54)                1.0949         estimate D2E/DX2                !
 ! R33   R(27,28)                1.2317         estimate D2E/DX2                !
 ! R34   R(27,31)                1.3702         estimate D2E/DX2                !
 ! R35   R(29,30)                1.4255         estimate D2E/DX2                !
 ! R36   R(29,51)                1.0977         estimate D2E/DX2                !
 ! R37   R(29,52)                1.0921         estimate D2E/DX2                !
 ! R38   R(30,53)                0.9758         estimate D2E/DX2                !
 ! R39   R(31,32)                1.4576         estimate D2E/DX2                !
 ! R40   R(31,59)                1.0148         estimate D2E/DX2                !
 ! R41   R(32,33)                1.5368         estimate D2E/DX2                !
 ! R42   R(32,57)                1.0932         estimate D2E/DX2                !
 ! R43   R(32,58)                1.0948         estimate D2E/DX2                !
 ! R44   R(33,34)                1.2374         estimate D2E/DX2                !
 ! R45   R(33,35)                1.3526         estimate D2E/DX2                !
 ! R46   R(35,36)                1.4488         estimate D2E/DX2                !
 ! R47   R(35,63)                1.0186         estimate D2E/DX2                !
 ! R48   R(36,37)                1.5419         estimate D2E/DX2                !
 ! R49   R(36,39)                1.5649         estimate D2E/DX2                !
 ! R50   R(36,62)                1.0954         estimate D2E/DX2                !
 ! R51   R(37,38)                1.2321         estimate D2E/DX2                !
 ! R52   R(37,41)                1.3572         estimate D2E/DX2                !
 ! R53   R(39,40)                1.8393         estimate D2E/DX2                !
 ! R54   R(39,60)                1.0956         estimate D2E/DX2                !
 ! R55   R(39,61)                1.0917         estimate D2E/DX2                !
 ! R56   R(41,42)                1.456          estimate D2E/DX2                !
 ! R57   R(41,67)                1.0189         estimate D2E/DX2                !
 ! R58   R(42,43)                1.554          estimate D2E/DX2                !
 ! R59   R(42,44)                1.5374         estimate D2E/DX2                !
 ! R60   R(42,66)                1.0887         estimate D2E/DX2                !
 ! R61   R(43,64)                1.0942         estimate D2E/DX2                !
 ! R62   R(43,65)                1.0903         estimate D2E/DX2                !
 ! R63   R(43,72)                1.9854         estimate D2E/DX2                !
 ! R64   R(44,45)                1.229          estimate D2E/DX2                !
 ! R65   R(44,46)                1.3618         estimate D2E/DX2                !
 ! R66   R(46,47)                1.4505         estimate D2E/DX2                !
 ! R67   R(46,70)                1.0171         estimate D2E/DX2                !
 ! R68   R(47,48)                1.5166         estimate D2E/DX2                !
 ! R69   R(47,68)                1.0989         estimate D2E/DX2                !
 ! R70   R(47,69)                1.0933         estimate D2E/DX2                !
 ! R71   R(48,49)                1.2111         estimate D2E/DX2                !
 ! R72   R(48,50)                1.3477         estimate D2E/DX2                !
 ! R73   R(50,71)                0.9759         estimate D2E/DX2                !
 ! R74   R(73,74)                1.406          estimate D2E/DX2                !
 ! R75   R(73,75)                1.4085         estimate D2E/DX2                !
 ! R76   R(74,76)                1.3948         estimate D2E/DX2                !
 ! R77   R(74,77)                1.0858         estimate D2E/DX2                !
 ! R78   R(75,78)                1.3926         estimate D2E/DX2                !
 ! R79   R(75,79)                1.086          estimate D2E/DX2                !
 ! R80   R(76,80)                1.0899         estimate D2E/DX2                !
 ! R81   R(76,82)                1.3394         estimate D2E/DX2                !
 ! R82   R(78,81)                1.0895         estimate D2E/DX2                !
 ! R83   R(78,82)                1.3416         estimate D2E/DX2                !
 ! A1    A(2,1,24)              93.9438         estimate D2E/DX2                !
 ! A2    A(2,1,40)              86.0562         estimate D2E/DX2                !
 ! A3    A(24,1,72)             86.4232         estimate D2E/DX2                !
 ! A4    A(40,1,72)             93.5768         estimate D2E/DX2                !
 ! A5    A(1,2,3)              112.3498         estimate D2E/DX2                !
 ! A6    A(1,2,6)              119.6596         estimate D2E/DX2                !
 ! A7    A(1,2,9)              108.8402         estimate D2E/DX2                !
 ! A8    A(3,2,6)              104.268          estimate D2E/DX2                !
 ! A9    A(3,2,9)              104.2994         estimate D2E/DX2                !
 ! A10   A(6,2,9)              106.2207         estimate D2E/DX2                !
 ! A11   A(2,3,4)              107.2437         estimate D2E/DX2                !
 ! A12   A(2,3,5)              106.1535         estimate D2E/DX2                !
 ! A13   A(2,3,12)             115.1231         estimate D2E/DX2                !
 ! A14   A(4,3,5)              107.2174         estimate D2E/DX2                !
 ! A15   A(4,3,12)             110.6927         estimate D2E/DX2                !
 ! A16   A(5,3,12)             110.0261         estimate D2E/DX2                !
 ! A17   A(2,6,7)              105.583          estimate D2E/DX2                !
 ! A18   A(2,6,8)              107.3914         estimate D2E/DX2                !
 ! A19   A(2,6,20)             115.8269         estimate D2E/DX2                !
 ! A20   A(7,6,8)              107.0312         estimate D2E/DX2                !
 ! A21   A(7,6,20)             110.2535         estimate D2E/DX2                !
 ! A22   A(8,6,20)             110.3071         estimate D2E/DX2                !
 ! A23   A(2,9,10)             107.9253         estimate D2E/DX2                !
 ! A24   A(2,9,11)             104.5999         estimate D2E/DX2                !
 ! A25   A(2,9,16)             116.6141         estimate D2E/DX2                !
 ! A26   A(10,9,11)            106.1058         estimate D2E/DX2                !
 ! A27   A(10,9,16)            111.0581         estimate D2E/DX2                !
 ! A28   A(11,9,16)            109.8672         estimate D2E/DX2                !
 ! A29   A(3,12,13)            112.3784         estimate D2E/DX2                !
 ! A30   A(3,12,14)            110.9809         estimate D2E/DX2                !
 ! A31   A(3,12,15)            109.6905         estimate D2E/DX2                !
 ! A32   A(13,12,14)           108.0739         estimate D2E/DX2                !
 ! A33   A(13,12,15)           107.8359         estimate D2E/DX2                !
 ! A34   A(14,12,15)           107.7187         estimate D2E/DX2                !
 ! A35   A(9,16,17)            109.0617         estimate D2E/DX2                !
 ! A36   A(9,16,18)            112.3101         estimate D2E/DX2                !
 ! A37   A(9,16,19)            112.2016         estimate D2E/DX2                !
 ! A38   A(17,16,18)           107.5453         estimate D2E/DX2                !
 ! A39   A(17,16,19)           107.3797         estimate D2E/DX2                !
 ! A40   A(18,16,19)           108.1228         estimate D2E/DX2                !
 ! A41   A(6,20,21)            111.3992         estimate D2E/DX2                !
 ! A42   A(6,20,22)            109.1159         estimate D2E/DX2                !
 ! A43   A(6,20,23)            112.0316         estimate D2E/DX2                !
 ! A44   A(21,20,22)           108.3492         estimate D2E/DX2                !
 ! A45   A(21,20,23)           108.3314         estimate D2E/DX2                !
 ! A46   A(22,20,23)           107.472          estimate D2E/DX2                !
 ! A47   A(1,24,73)            105.3371         estimate D2E/DX2                !
 ! A48   A(26,25,55)           107.4793         estimate D2E/DX2                !
 ! A49   A(26,25,56)           109.8173         estimate D2E/DX2                !
 ! A50   A(55,25,56)           105.8381         estimate D2E/DX2                !
 ! A51   A(25,26,27)           110.9684         estimate D2E/DX2                !
 ! A52   A(25,26,29)           107.0484         estimate D2E/DX2                !
 ! A53   A(25,26,54)           108.3294         estimate D2E/DX2                !
 ! A54   A(27,26,29)           110.7023         estimate D2E/DX2                !
 ! A55   A(27,26,54)           111.3856         estimate D2E/DX2                !
 ! A56   A(29,26,54)           108.2526         estimate D2E/DX2                !
 ! A57   A(26,27,28)           119.4835         estimate D2E/DX2                !
 ! A58   A(26,27,31)           120.6043         estimate D2E/DX2                !
 ! A59   A(28,27,31)           119.8831         estimate D2E/DX2                !
 ! A60   A(26,29,30)           114.2173         estimate D2E/DX2                !
 ! A61   A(26,29,51)           106.8036         estimate D2E/DX2                !
 ! A62   A(26,29,52)           109.8373         estimate D2E/DX2                !
 ! A63   A(30,29,51)           111.3954         estimate D2E/DX2                !
 ! A64   A(30,29,52)           105.9            estimate D2E/DX2                !
 ! A65   A(51,29,52)           108.5999         estimate D2E/DX2                !
 ! A66   A(29,30,53)           107.7892         estimate D2E/DX2                !
 ! A67   A(27,31,32)           128.524          estimate D2E/DX2                !
 ! A68   A(27,31,59)           113.1642         estimate D2E/DX2                !
 ! A69   A(32,31,59)           117.897          estimate D2E/DX2                !
 ! A70   A(31,32,33)           113.8758         estimate D2E/DX2                !
 ! A71   A(31,32,57)           111.3776         estimate D2E/DX2                !
 ! A72   A(31,32,58)           107.1086         estimate D2E/DX2                !
 ! A73   A(33,32,57)           106.1592         estimate D2E/DX2                !
 ! A74   A(33,32,58)           110.5991         estimate D2E/DX2                !
 ! A75   A(57,32,58)           107.5902         estimate D2E/DX2                !
 ! A76   A(32,33,34)           120.0753         estimate D2E/DX2                !
 ! A77   A(32,33,35)           118.6882         estimate D2E/DX2                !
 ! A78   A(34,33,35)           121.1949         estimate D2E/DX2                !
 ! A79   A(33,35,36)           130.1994         estimate D2E/DX2                !
 ! A80   A(33,35,63)           115.1069         estimate D2E/DX2                !
 ! A81   A(36,35,63)           114.6639         estimate D2E/DX2                !
 ! A82   A(35,36,37)           117.6933         estimate D2E/DX2                !
 ! A83   A(35,36,39)           110.0202         estimate D2E/DX2                !
 ! A84   A(35,36,62)           109.8714         estimate D2E/DX2                !
 ! A85   A(37,36,39)           108.658          estimate D2E/DX2                !
 ! A86   A(37,36,62)           103.6977         estimate D2E/DX2                !
 ! A87   A(39,36,62)           106.1734         estimate D2E/DX2                !
 ! A88   A(36,37,38)           116.8696         estimate D2E/DX2                !
 ! A89   A(36,37,41)           119.0986         estimate D2E/DX2                !
 ! A90   A(38,37,41)           123.7583         estimate D2E/DX2                !
 ! A91   A(36,39,40)           117.2418         estimate D2E/DX2                !
 ! A92   A(36,39,60)           108.5074         estimate D2E/DX2                !
 ! A93   A(36,39,61)           108.7731         estimate D2E/DX2                !
 ! A94   A(40,39,60)           102.6298         estimate D2E/DX2                !
 ! A95   A(40,39,61)           110.9665         estimate D2E/DX2                !
 ! A96   A(60,39,61)           108.2472         estimate D2E/DX2                !
 ! A97   A(1,40,39)            114.804          estimate D2E/DX2                !
 ! A98   A(37,41,42)           118.555          estimate D2E/DX2                !
 ! A99   A(37,41,67)           121.6362         estimate D2E/DX2                !
 ! A100  A(42,41,67)           119.6984         estimate D2E/DX2                !
 ! A101  A(41,42,43)           112.8632         estimate D2E/DX2                !
 ! A102  A(41,42,44)           109.7193         estimate D2E/DX2                !
 ! A103  A(41,42,66)           105.4473         estimate D2E/DX2                !
 ! A104  A(43,42,44)           107.6575         estimate D2E/DX2                !
 ! A105  A(43,42,66)           108.9293         estimate D2E/DX2                !
 ! A106  A(44,42,66)           112.2963         estimate D2E/DX2                !
 ! A107  A(42,43,64)           109.774          estimate D2E/DX2                !
 ! A108  A(42,43,65)           109.8484         estimate D2E/DX2                !
 ! A109  A(42,43,72)           114.9285         estimate D2E/DX2                !
 ! A110  A(64,43,65)           107.5585         estimate D2E/DX2                !
 ! A111  A(64,43,72)           106.2038         estimate D2E/DX2                !
 ! A112  A(65,43,72)           108.2326         estimate D2E/DX2                !
 ! A113  A(42,44,45)           119.8472         estimate D2E/DX2                !
 ! A114  A(42,44,46)           117.945          estimate D2E/DX2                !
 ! A115  A(45,44,46)           122.0539         estimate D2E/DX2                !
 ! A116  A(44,46,47)           126.7847         estimate D2E/DX2                !
 ! A117  A(44,46,70)           114.0024         estimate D2E/DX2                !
 ! A118  A(47,46,70)           113.9459         estimate D2E/DX2                !
 ! A119  A(46,47,48)           108.6166         estimate D2E/DX2                !
 ! A120  A(46,47,68)           112.5402         estimate D2E/DX2                !
 ! A121  A(46,47,69)           111.8502         estimate D2E/DX2                !
 ! A122  A(48,47,68)           107.9385         estimate D2E/DX2                !
 ! A123  A(48,47,69)           107.3679         estimate D2E/DX2                !
 ! A124  A(68,47,69)           108.3284         estimate D2E/DX2                !
 ! A125  A(47,48,49)           125.2725         estimate D2E/DX2                !
 ! A126  A(47,48,50)           111.0888         estimate D2E/DX2                !
 ! A127  A(49,48,50)           123.6307         estimate D2E/DX2                !
 ! A128  A(48,50,71)           106.4657         estimate D2E/DX2                !
 ! A129  A(1,72,43)             97.7128         estimate D2E/DX2                !
 ! A130  A(24,73,74)           124.8853         estimate D2E/DX2                !
 ! A131  A(24,73,75)           118.4259         estimate D2E/DX2                !
 ! A132  A(74,73,75)           116.6505         estimate D2E/DX2                !
 ! A133  A(73,74,76)           119.1935         estimate D2E/DX2                !
 ! A134  A(73,74,77)           120.6625         estimate D2E/DX2                !
 ! A135  A(76,74,77)           120.132          estimate D2E/DX2                !
 ! A136  A(73,75,78)           119.1572         estimate D2E/DX2                !
 ! A137  A(73,75,79)           120.633          estimate D2E/DX2                !
 ! A138  A(78,75,79)           120.2097         estimate D2E/DX2                !
 ! A139  A(74,76,80)           119.5258         estimate D2E/DX2                !
 ! A140  A(74,76,82)           124.4768         estimate D2E/DX2                !
 ! A141  A(80,76,82)           115.9965         estimate D2E/DX2                !
 ! A142  A(75,78,81)           119.4875         estimate D2E/DX2                !
 ! A143  A(75,78,82)           124.4997         estimate D2E/DX2                !
 ! A144  A(81,78,82)           116.009          estimate D2E/DX2                !
 ! A145  A(76,82,78)           116.0117         estimate D2E/DX2                !
 ! A146  L(2,1,72,40,-1)       179.633          estimate D2E/DX2                !
 ! A147  L(24,1,40,72,-1)      180.0            estimate D2E/DX2                !
 ! A148  L(2,1,72,40,-2)       184.5034         estimate D2E/DX2                !
 ! A149  L(24,1,40,72,-2)      180.0            estimate D2E/DX2                !
 ! D1    D(24,1,2,3)           129.7324         estimate D2E/DX2                !
 ! D2    D(24,1,2,6)             6.9955         estimate D2E/DX2                !
 ! D3    D(24,1,2,9)          -115.2779         estimate D2E/DX2                !
 ! D4    D(40,1,2,3)           -50.2676         estimate D2E/DX2                !
 ! D5    D(40,1,2,6)          -173.0045         estimate D2E/DX2                !
 ! D6    D(40,1,2,9)            64.7222         estimate D2E/DX2                !
 ! D7    D(3,2,72,43)         -171.6084         estimate D2E/DX2                !
 ! D8    D(6,2,72,43)           63.6807         estimate D2E/DX2                !
 ! D9    D(9,2,72,43)          -57.0466         estimate D2E/DX2                !
 ! D10   D(2,1,24,73)          -72.2533         estimate D2E/DX2                !
 ! D11   D(72,1,24,73)         112.2501         estimate D2E/DX2                !
 ! D12   D(73,24,40,39)        138.4525         estimate D2E/DX2                !
 ! D13   D(2,1,40,39)         -149.2942         estimate D2E/DX2                !
 ! D14   D(72,1,40,39)          26.2024         estimate D2E/DX2                !
 ! D15   D(24,1,72,43)          58.11           estimate D2E/DX2                !
 ! D16   D(40,1,72,43)        -121.89           estimate D2E/DX2                !
 ! D17   D(1,2,3,4)            178.7971         estimate D2E/DX2                !
 ! D18   D(1,2,3,5)             64.4308         estimate D2E/DX2                !
 ! D19   D(1,2,3,12)           -57.5477         estimate D2E/DX2                !
 ! D20   D(6,2,3,4)            -50.16           estimate D2E/DX2                !
 ! D21   D(6,2,3,5)           -164.5264         estimate D2E/DX2                !
 ! D22   D(6,2,3,12)            73.4952         estimate D2E/DX2                !
 ! D23   D(9,2,3,4)             61.0792         estimate D2E/DX2                !
 ! D24   D(9,2,3,5)            -53.2871         estimate D2E/DX2                !
 ! D25   D(9,2,3,12)          -175.2655         estimate D2E/DX2                !
 ! D26   D(1,2,6,7)            165.3            estimate D2E/DX2                !
 ! D27   D(1,2,6,8)             51.3469         estimate D2E/DX2                !
 ! D28   D(1,2,6,20)           -72.4072         estimate D2E/DX2                !
 ! D29   D(3,2,6,7)             38.692          estimate D2E/DX2                !
 ! D30   D(3,2,6,8)            -75.261          estimate D2E/DX2                !
 ! D31   D(3,2,6,20)           160.9849         estimate D2E/DX2                !
 ! D32   D(9,2,6,7)            -71.1481         estimate D2E/DX2                !
 ! D33   D(9,2,6,8)            174.8988         estimate D2E/DX2                !
 ! D34   D(9,2,6,20)            51.1447         estimate D2E/DX2                !
 ! D35   D(1,2,9,10)            53.8719         estimate D2E/DX2                !
 ! D36   D(1,2,9,11)           -58.8061         estimate D2E/DX2                !
 ! D37   D(1,2,9,16)           179.6388         estimate D2E/DX2                !
 ! D38   D(3,2,9,10)           173.9781         estimate D2E/DX2                !
 ! D39   D(3,2,9,11)            61.3            estimate D2E/DX2                !
 ! D40   D(3,2,9,16)           -60.2551         estimate D2E/DX2                !
 ! D41   D(6,2,9,10)           -76.204          estimate D2E/DX2                !
 ! D42   D(6,2,9,11)           171.118          estimate D2E/DX2                !
 ! D43   D(6,2,9,16)            49.5629         estimate D2E/DX2                !
 ! D44   D(2,3,12,13)          -58.01           estimate D2E/DX2                !
 ! D45   D(2,3,12,14)           63.1362         estimate D2E/DX2                !
 ! D46   D(2,3,12,15)         -177.9539         estimate D2E/DX2                !
 ! D47   D(4,3,12,13)           63.8006         estimate D2E/DX2                !
 ! D48   D(4,3,12,14)         -175.0531         estimate D2E/DX2                !
 ! D49   D(4,3,12,15)          -56.1433         estimate D2E/DX2                !
 ! D50   D(5,3,12,13)         -177.8761         estimate D2E/DX2                !
 ! D51   D(5,3,12,14)          -56.7298         estimate D2E/DX2                !
 ! D52   D(5,3,12,15)           62.18           estimate D2E/DX2                !
 ! D53   D(2,6,20,21)           60.4812         estimate D2E/DX2                !
 ! D54   D(2,6,20,22)         -179.9366         estimate D2E/DX2                !
 ! D55   D(2,6,20,23)          -61.0519         estimate D2E/DX2                !
 ! D56   D(7,6,20,21)         -179.7366         estimate D2E/DX2                !
 ! D57   D(7,6,20,22)          -60.1544         estimate D2E/DX2                !
 ! D58   D(7,6,20,23)           58.7303         estimate D2E/DX2                !
 ! D59   D(8,6,20,21)          -61.7392         estimate D2E/DX2                !
 ! D60   D(8,6,20,22)           57.843          estimate D2E/DX2                !
 ! D61   D(8,6,20,23)          176.7277         estimate D2E/DX2                !
 ! D62   D(2,9,16,17)          176.0549         estimate D2E/DX2                !
 ! D63   D(2,9,16,18)          -64.8316         estimate D2E/DX2                !
 ! D64   D(2,9,16,19)           57.2154         estimate D2E/DX2                !
 ! D65   D(10,9,16,17)         -59.7637         estimate D2E/DX2                !
 ! D66   D(10,9,16,18)          59.3497         estimate D2E/DX2                !
 ! D67   D(10,9,16,19)        -178.6032         estimate D2E/DX2                !
 ! D68   D(11,9,16,17)          57.3144         estimate D2E/DX2                !
 ! D69   D(11,9,16,18)         176.4279         estimate D2E/DX2                !
 ! D70   D(11,9,16,19)         -61.5251         estimate D2E/DX2                !
 ! D71   D(1,24,73,74)         -25.9393         estimate D2E/DX2                !
 ! D72   D(1,24,73,75)         156.3942         estimate D2E/DX2                !
 ! D73   D(55,25,26,27)         44.203          estimate D2E/DX2                !
 ! D74   D(55,25,26,29)        -76.6945         estimate D2E/DX2                !
 ! D75   D(55,25,26,54)        166.7733         estimate D2E/DX2                !
 ! D76   D(56,25,26,27)        -70.4817         estimate D2E/DX2                !
 ! D77   D(56,25,26,29)        168.6209         estimate D2E/DX2                !
 ! D78   D(56,25,26,54)         52.0886         estimate D2E/DX2                !
 ! D79   D(25,26,27,28)        -44.3423         estimate D2E/DX2                !
 ! D80   D(25,26,27,31)        133.6908         estimate D2E/DX2                !
 ! D81   D(29,26,27,28)         74.374          estimate D2E/DX2                !
 ! D82   D(29,26,27,31)       -107.593          estimate D2E/DX2                !
 ! D83   D(54,26,27,28)       -165.1234         estimate D2E/DX2                !
 ! D84   D(54,26,27,31)         12.9096         estimate D2E/DX2                !
 ! D85   D(25,26,29,30)       -175.3891         estimate D2E/DX2                !
 ! D86   D(25,26,29,51)        -51.7697         estimate D2E/DX2                !
 ! D87   D(25,26,29,52)         65.8206         estimate D2E/DX2                !
 ! D88   D(27,26,29,30)         63.5448         estimate D2E/DX2                !
 ! D89   D(27,26,29,51)       -172.8358         estimate D2E/DX2                !
 ! D90   D(27,26,29,52)        -55.2456         estimate D2E/DX2                !
 ! D91   D(54,26,29,30)        -58.806          estimate D2E/DX2                !
 ! D92   D(54,26,29,51)         64.8134         estimate D2E/DX2                !
 ! D93   D(54,26,29,52)       -177.5963         estimate D2E/DX2                !
 ! D94   D(26,27,31,32)          3.8779         estimate D2E/DX2                !
 ! D95   D(26,27,31,59)        176.2378         estimate D2E/DX2                !
 ! D96   D(28,27,31,32)       -178.0969         estimate D2E/DX2                !
 ! D97   D(28,27,31,59)         -5.737          estimate D2E/DX2                !
 ! D98   D(26,29,30,53)         59.1501         estimate D2E/DX2                !
 ! D99   D(51,29,30,53)        -61.9595         estimate D2E/DX2                !
 ! D100  D(52,29,30,53)       -179.8511         estimate D2E/DX2                !
 ! D101  D(27,31,32,33)         65.7211         estimate D2E/DX2                !
 ! D102  D(27,31,32,57)        -54.2859         estimate D2E/DX2                !
 ! D103  D(27,31,32,58)       -171.6763         estimate D2E/DX2                !
 ! D104  D(59,31,32,33)       -106.3292         estimate D2E/DX2                !
 ! D105  D(59,31,32,57)        133.6638         estimate D2E/DX2                !
 ! D106  D(59,31,32,58)         16.2735         estimate D2E/DX2                !
 ! D107  D(31,32,33,34)       -113.4478         estimate D2E/DX2                !
 ! D108  D(31,32,33,35)         64.2351         estimate D2E/DX2                !
 ! D109  D(57,32,33,34)          9.4592         estimate D2E/DX2                !
 ! D110  D(57,32,33,35)       -172.8579         estimate D2E/DX2                !
 ! D111  D(58,32,33,34)        125.8847         estimate D2E/DX2                !
 ! D112  D(58,32,33,35)        -56.4324         estimate D2E/DX2                !
 ! D113  D(32,33,35,36)          0.3717         estimate D2E/DX2                !
 ! D114  D(32,33,35,63)       -177.5109         estimate D2E/DX2                !
 ! D115  D(34,33,35,36)        178.0277         estimate D2E/DX2                !
 ! D116  D(34,33,35,63)          0.1451         estimate D2E/DX2                !
 ! D117  D(33,35,36,37)        -75.8065         estimate D2E/DX2                !
 ! D118  D(33,35,36,39)        159.0385         estimate D2E/DX2                !
 ! D119  D(33,35,36,62)         42.4921         estimate D2E/DX2                !
 ! D120  D(63,35,36,37)        102.0836         estimate D2E/DX2                !
 ! D121  D(63,35,36,39)        -23.0713         estimate D2E/DX2                !
 ! D122  D(63,35,36,62)       -139.6177         estimate D2E/DX2                !
 ! D123  D(35,36,37,38)        149.4671         estimate D2E/DX2                !
 ! D124  D(35,36,37,41)        -36.3134         estimate D2E/DX2                !
 ! D125  D(39,36,37,38)        -84.7075         estimate D2E/DX2                !
 ! D126  D(39,36,37,41)         89.5121         estimate D2E/DX2                !
 ! D127  D(62,36,37,38)         27.9301         estimate D2E/DX2                !
 ! D128  D(62,36,37,41)       -157.8503         estimate D2E/DX2                !
 ! D129  D(35,36,39,40)         31.2918         estimate D2E/DX2                !
 ! D130  D(35,36,39,60)        -84.2826         estimate D2E/DX2                !
 ! D131  D(35,36,39,61)        158.1671         estimate D2E/DX2                !
 ! D132  D(37,36,39,40)        -98.8815         estimate D2E/DX2                !
 ! D133  D(37,36,39,60)        145.5442         estimate D2E/DX2                !
 ! D134  D(37,36,39,61)         27.9939         estimate D2E/DX2                !
 ! D135  D(62,36,39,40)        150.1311         estimate D2E/DX2                !
 ! D136  D(62,36,39,60)         34.5567         estimate D2E/DX2                !
 ! D137  D(62,36,39,61)        -82.9936         estimate D2E/DX2                !
 ! D138  D(36,37,41,42)       -161.7339         estimate D2E/DX2                !
 ! D139  D(36,37,41,67)         22.1004         estimate D2E/DX2                !
 ! D140  D(38,37,41,42)         12.0624         estimate D2E/DX2                !
 ! D141  D(38,37,41,67)       -164.1034         estimate D2E/DX2                !
 ! D142  D(36,39,40,1)          76.1186         estimate D2E/DX2                !
 ! D143  D(60,39,40,1)        -165.1146         estimate D2E/DX2                !
 ! D144  D(61,39,40,1)         -49.679          estimate D2E/DX2                !
 ! D145  D(37,41,42,43)        103.3262         estimate D2E/DX2                !
 ! D146  D(37,41,42,44)       -136.6187         estimate D2E/DX2                !
 ! D147  D(37,41,42,66)        -15.4752         estimate D2E/DX2                !
 ! D148  D(67,41,42,43)        -80.4319         estimate D2E/DX2                !
 ! D149  D(67,41,42,44)         39.6233         estimate D2E/DX2                !
 ! D150  D(67,41,42,66)        160.7668         estimate D2E/DX2                !
 ! D151  D(41,42,43,64)       -158.2897         estimate D2E/DX2                !
 ! D152  D(41,42,43,65)         83.6367         estimate D2E/DX2                !
 ! D153  D(41,42,43,72)        -38.6791         estimate D2E/DX2                !
 ! D154  D(44,42,43,64)         80.4778         estimate D2E/DX2                !
 ! D155  D(44,42,43,65)        -37.5957         estimate D2E/DX2                !
 ! D156  D(44,42,43,72)       -159.9116         estimate D2E/DX2                !
 ! D157  D(66,42,43,64)        -41.5335         estimate D2E/DX2                !
 ! D158  D(66,42,43,65)       -159.607          estimate D2E/DX2                !
 ! D159  D(66,42,43,72)         78.0771         estimate D2E/DX2                !
 ! D160  D(41,42,44,45)        -61.2083         estimate D2E/DX2                !
 ! D161  D(41,42,44,46)        123.2068         estimate D2E/DX2                !
 ! D162  D(43,42,44,45)         61.9697         estimate D2E/DX2                !
 ! D163  D(43,42,44,46)       -113.6153         estimate D2E/DX2                !
 ! D164  D(66,42,44,45)       -178.1309         estimate D2E/DX2                !
 ! D165  D(66,42,44,46)          6.2842         estimate D2E/DX2                !
 ! D166  D(42,43,72,1)          89.1953         estimate D2E/DX2                !
 ! D167  D(64,43,72,1)        -149.2328         estimate D2E/DX2                !
 ! D168  D(65,43,72,1)         -33.9876         estimate D2E/DX2                !
 ! D169  D(42,44,46,47)        -23.7486         estimate D2E/DX2                !
 ! D170  D(42,44,46,70)       -176.3308         estimate D2E/DX2                !
 ! D171  D(45,44,46,47)        160.7699         estimate D2E/DX2                !
 ! D172  D(45,44,46,70)          8.1877         estimate D2E/DX2                !
 ! D173  D(44,46,47,48)       -150.2861         estimate D2E/DX2                !
 ! D174  D(44,46,47,68)         90.2621         estimate D2E/DX2                !
 ! D175  D(44,46,47,69)        -31.963          estimate D2E/DX2                !
 ! D176  D(70,46,47,48)          2.3091         estimate D2E/DX2                !
 ! D177  D(70,46,47,68)       -117.1426         estimate D2E/DX2                !
 ! D178  D(70,46,47,69)        120.6323         estimate D2E/DX2                !
 ! D179  D(46,47,48,49)         -2.3247         estimate D2E/DX2                !
 ! D180  D(46,47,48,50)        178.6777         estimate D2E/DX2                !
 ! D181  D(68,47,48,49)        119.9661         estimate D2E/DX2                !
 ! D182  D(68,47,48,50)        -59.0315         estimate D2E/DX2                !
 ! D183  D(69,47,48,49)       -123.4459         estimate D2E/DX2                !
 ! D184  D(69,47,48,50)         57.5565         estimate D2E/DX2                !
 ! D185  D(47,48,50,71)        179.9994         estimate D2E/DX2                !
 ! D186  D(49,48,50,71)          0.9822         estimate D2E/DX2                !
 ! D187  D(24,73,74,76)       -178.5917         estimate D2E/DX2                !
 ! D188  D(24,73,74,77)          0.1496         estimate D2E/DX2                !
 ! D189  D(75,73,74,76)         -0.8877         estimate D2E/DX2                !
 ! D190  D(75,73,74,77)        177.8535         estimate D2E/DX2                !
 ! D191  D(24,73,75,78)        178.2355         estimate D2E/DX2                !
 ! D192  D(24,73,75,79)         -1.8772         estimate D2E/DX2                !
 ! D193  D(74,73,75,78)          0.3772         estimate D2E/DX2                !
 ! D194  D(74,73,75,79)       -179.7356         estimate D2E/DX2                !
 ! D195  D(73,74,76,80)       -179.8606         estimate D2E/DX2                !
 ! D196  D(73,74,76,82)          0.5007         estimate D2E/DX2                !
 ! D197  D(77,74,76,80)          1.3913         estimate D2E/DX2                !
 ! D198  D(77,74,76,82)       -178.2473         estimate D2E/DX2                !
 ! D199  D(73,75,78,81)        179.8795         estimate D2E/DX2                !
 ! D200  D(73,75,78,82)          0.6165         estimate D2E/DX2                !
 ! D201  D(79,75,78,81)         -0.0082         estimate D2E/DX2                !
 ! D202  D(79,75,78,82)       -179.2713         estimate D2E/DX2                !
 ! D203  D(74,76,82,78)          0.4511         estimate D2E/DX2                !
 ! D204  D(80,76,82,78)       -179.1991         estimate D2E/DX2                !
 ! D205  D(75,78,82,76)         -1.0208         estimate D2E/DX2                !
 ! D206  D(81,78,82,76)        179.693          estimate D2E/DX2                !
 --------------------------------------------------------------------------------
 Trust Radius=3.00D-01 FncErr=1.00D-07 GrdErr=1.00D-06
 Number of steps in this run=    448 maximum allowed number of steps=    492.
 GradGradGradGradGradGradGradGradGradGradGradGradGradGradGradGradGradGrad

 Stoichiometry    C24H40AuN6O7PS2Se
 Framework group  C1[X(C24H40AuN6O7PS2Se)]
 Deg. of freedom   240
 Full point group                 C1      NOp   1
 Largest Abelian subgroup         C1      NOp   1
 Largest concise Abelian subgroup C1      NOp   1
                         Standard orientation:                         
 ---------------------------------------------------------------------
 Center     Atomic      Atomic             Coordinates (Angstroms)
 Number     Number       Type             X           Y           Z
 ---------------------------------------------------------------------
      1         79           0        1.771236   -0.084834   -0.562408
      2         15           0        2.727171    1.747388    0.774619
      3          6           0        3.849422    2.838293   -0.223305
      4          1           0        4.208427    3.632203    0.443382
      5          1           0        3.217288    3.313155   -0.982198
      6          6           0        3.710569    1.354827    2.304207
      7          1           0        4.240438    2.282360    2.560504
      8          1           0        4.470492    0.618272    2.024534
      9          6           0        1.354970    2.873793    1.315411
     10          1           0        0.597874    2.264213    1.821493
     11          1           0        0.895205    3.216389    0.382469
     12          6           0        5.027025    2.120659   -0.894748
     13          1           0        5.664472    1.600319   -0.172717
     14          1           0        4.673417    1.387038   -1.626144
     15          1           0        5.648238    2.849121   -1.426867
     16          6           0        1.754984    4.081971    2.174429
     17          1           0        0.868001    4.696382    2.362708
     18          1           0        2.162378    3.784629    3.145297
     19          1           0        2.493455    4.717933    1.675560
     20          6           0        2.901267    0.854254    3.509897
     21          1           0        2.369877   -0.071000    3.276724
     22          1           0        3.584017    0.659009    4.344193
     23          1           0        2.170542    1.594545    3.849691
     24         16           0        2.388924   -1.796810    1.035359
     25          7           0       -5.580973    1.902355    2.644238
     26          6           0       -4.485940    2.048478    1.681679
     27          6           0       -4.730629    1.180509    0.432102
     28          8           0       -5.125389    0.021616    0.566811
     29          6           0       -3.185242    1.614679    2.403910
     30          8           0       -2.000047    1.795741    1.632864
     31          7           0       -4.551594    1.699107   -0.823415
     32          6           0       -4.061404    3.019417   -1.198873
     33          6           0       -2.594582    3.270540   -0.815444
     34          8           0       -2.314027    4.117451    0.042036
     35          7           0       -1.633321    2.517649   -1.397338
     36          6           0       -1.741840    1.458715   -2.380205
     37          6           0       -2.237652    0.080904   -1.897312
     38          8           0       -2.863654   -0.601783   -2.709838
     39          6           0       -0.374021    1.268761   -3.116305
     40         16           0        1.154712    1.623917   -2.157165
     41          7           0       -1.867983   -0.359921   -0.668084
     42          6           0       -1.984839   -1.781147   -0.374202
     43          6           0       -0.618124   -2.519743   -0.411373
     44          6           0       -2.580691   -1.973232    1.029987
     45          8           0       -1.985582   -1.535400    2.012092
     46          7           0       -3.718972   -2.711891    1.144642
     47          6           0       -4.706766   -2.951568    0.109896
     48          6           0       -6.060237   -3.141347    0.767251
     49          8           0       -6.264626   -3.137684    1.960926
     50          8           0       -7.023367   -3.339694   -0.154317
     51          1           0       -3.141201    2.178950    3.344423
     52          1           0       -3.229499    0.549042    2.638776
     53          1           0       -1.931824    2.743116    1.409016
     54          1           0       -4.396155    3.107950    1.420524
     55          1           0       -5.800908    0.907792    2.709740
     56          1           0       -6.421748    2.349852    2.281634
     57          1           0       -4.641472    3.811452   -0.717940
     58          1           0       -4.199206    3.118568   -2.280445
     59          1           0       -4.684595    1.014663   -1.560723
     60          1           0       -0.316494    1.993623   -3.935773
     61          1           0       -0.342033    0.265186   -3.544780
     62          1           0       -2.467076    1.739608   -3.151646
     63          1           0       -0.685005    2.702567   -1.074677
     64          1           0       -0.779955   -3.589968   -0.571669
     65          1           0       -0.108560   -2.403834    0.545497
     66          1           0       -2.626815   -2.186751   -1.154343
     67          1           0       -1.569079    0.283832    0.062980
     68          1           0       -4.488120   -3.852052   -0.480716
     69          1           0       -4.792591   -2.103658   -0.574976
     70          1           0       -4.093099   -2.751450    2.089648
     71          1           0       -7.858299   -3.452816    0.338105
     72         34           0        0.615838   -1.924668   -1.848352
     73          6           0        4.143308   -1.956406    0.894633
     74          6           0        4.889078   -1.647721   -0.256621
     75          6           0        4.859642   -2.473511    1.991587
     76          6           0        6.269581   -1.846816   -0.246613
     77          1           0        4.398172   -1.278074   -1.151761
     78          6           0        6.238035   -2.640520    1.883939
     79          1           0        4.347383   -2.738037    2.911912
     80          1           0        6.853266   -1.607195   -1.135293
     81          1           0        6.797731   -3.038224    2.729831
     82          7           0        6.958449   -2.329777    0.795628
 ---------------------------------------------------------------------
 Rotational constants (GHZ):      0.0936051      0.0423304      0.0376964
 General basis read from cards:  (5D, 7F)
 ======================================================================================================
                                       Pseudopotential Parameters
 ======================================================================================================
  Center     Atomic      Valence      Angular      Power
  Number     Number     Electrons     Momentum     of R      Exponent        Coefficient   SO-Coeffient
 ======================================================================================================
    1         79           19
                                      G and up 
                                                     1      622.6287956      -60.00000000    0.00000000
                                                     2      136.2843607     -555.52923120    0.00000000
                                                     2       33.1549781     -168.00197850    0.00000000
                                                     2        9.9894895      -63.03998750    0.00000000
                                                     2        3.0481312       -4.25166810    0.00000000
                                      S - G
                                                     0      194.7374304        3.00000000    0.00000000
                                                     1      351.5327447       38.60208800    0.00000000
                                                     2      122.3270402      864.83707270    0.00000000
                                                     2       32.0914617      374.99355200    0.00000000
                                                     2        5.2451812      289.79101000    0.00000000
                                                     2        4.4916223     -152.45327730    0.00000000
                                      P - G
                                                     0      420.6158801        2.00000000    0.00000000
                                                     1      109.4417815       73.88856250    0.00000000
                                                     2       34.1714280      326.67298720    0.00000000
                                                     2        5.9879750      126.58145910    0.00000000
                                      D - G
                                                     0      219.2666158        3.00000000    0.00000000
                                                     1      122.7297786       55.67931490    0.00000000
                                                     2       63.1063369      449.19873350    0.00000000
                                                     2       18.3684520      215.02690910    0.00000000
                                                     2        4.4972844       64.08409950    0.00000000
                                      F - G
                                                     0      108.5506037        4.00000000    0.00000000
                                                     1       56.4795527       51.80653350    0.00000000
                                                     2       29.2069159      231.21831130    0.00000000
                                                     2        9.5440543      119.00473860    0.00000000
                                                     2        2.8965118       15.34241880    0.00000000
    2         15
                                   No pseudopotential on this center.
    3          6
                                   No pseudopotential on this center.
    4          1
                                   No pseudopotential on this center.
    5          1
                                   No pseudopotential on this center.
    6          6
                                   No pseudopotential on this center.
    7          1
                                   No pseudopotential on this center.
    8          1
                                   No pseudopotential on this center.
    9          6
                                   No pseudopotential on this center.
   10          1
                                   No pseudopotential on this center.
   11          1
                                   No pseudopotential on this center.
   12          6
                                   No pseudopotential on this center.
   13          1
                                   No pseudopotential on this center.
   14          1
                                   No pseudopotential on this center.
   15          1
                                   No pseudopotential on this center.
   16          6
                                   No pseudopotential on this center.
   17          1
                                   No pseudopotential on this center.
   18          1
                                   No pseudopotential on this center.
   19          1
                                   No pseudopotential on this center.
   20          6
                                   No pseudopotential on this center.
   21          1
                                   No pseudopotential on this center.
   22          1
                                   No pseudopotential on this center.
   23          1
                                   No pseudopotential on this center.
   24         16
                                   No pseudopotential on this center.
   25          7
                                   No pseudopotential on this center.
   26          6
                                   No pseudopotential on this center.
   27          6
                                   No pseudopotential on this center.
   28          8
                                   No pseudopotential on this center.
   29          6
                                   No pseudopotential on this center.
   30          8
                                   No pseudopotential on this center.
   31          7
                                   No pseudopotential on this center.
   32          6
                                   No pseudopotential on this center.
   33          6
                                   No pseudopotential on this center.
   34          8
                                   No pseudopotential on this center.
   35          7
                                   No pseudopotential on this center.
   36          6
                                   No pseudopotential on this center.
   37          6
                                   No pseudopotential on this center.
   38          8
                                   No pseudopotential on this center.
   39          6
                                   No pseudopotential on this center.
   40         16
                                   No pseudopotential on this center.
   41          7
                                   No pseudopotential on this center.
   42          6
                                   No pseudopotential on this center.
   43          6
                                   No pseudopotential on this center.
   44          6
                                   No pseudopotential on this center.
   45          8
                                   No pseudopotential on this center.
   46          7
                                   No pseudopotential on this center.
   47          6
                                   No pseudopotential on this center.
   48          6
                                   No pseudopotential on this center.
   49          8
                                   No pseudopotential on this center.
   50          8
                                   No pseudopotential on this center.
   51          1
                                   No pseudopotential on this center.
   52          1
                                   No pseudopotential on this center.
   53          1
                                   No pseudopotential on this center.
   54          1
                                   No pseudopotential on this center.
   55          1
                                   No pseudopotential on this center.
   56          1
                                   No pseudopotential on this center.
   57          1
                                   No pseudopotential on this center.
   58          1
                                   No pseudopotential on this center.
   59          1
                                   No pseudopotential on this center.
   60          1
                                   No pseudopotential on this center.
   61          1
                                   No pseudopotential on this center.
   62          1
                                   No pseudopotential on this center.
   63          1
                                   No pseudopotential on this center.
   64          1
                                   No pseudopotential on this center.
   65          1
                                   No pseudopotential on this center.
   66          1
                                   No pseudopotential on this center.
   67          1
                                   No pseudopotential on this center.
   68          1
                                   No pseudopotential on this center.
   69          1
                                   No pseudopotential on this center.
   70          1
                                   No pseudopotential on this center.
   71          1
                                   No pseudopotential on this center.
   72         34
                                   No pseudopotential on this center.
   73          6
                                   No pseudopotential on this center.
   74          6
                                   No pseudopotential on this center.
   75          6
                                   No pseudopotential on this center.
   76          6
                                   No pseudopotential on this center.
   77          1
                                   No pseudopotential on this center.
   78          6
                                   No pseudopotential on this center.
   79          1
                                   No pseudopotential on this center.
   80          1
                                   No pseudopotential on this center.
   81          1
                                   No pseudopotential on this center.
   82          7
                                   No pseudopotential on this center.
 ======================================================================================================
 There are   770 symmetry adapted cartesian basis functions of A   symmetry.
 There are   722 symmetry adapted basis functions of A   symmetry.
   722 basis functions,  1483 primitive gaussians,   770 cartesian basis functions
   191 alpha electrons      191 beta electrons
       nuclear repulsion energy      7849.6138295171 Hartrees.
 NAtoms=   82 NActive=   82 NUniq=   82 SFac= 1.00D+00 NAtFMM=   60 NAOKFM=T Big=T
 Integral buffers will be    131072 words long.
 Raffenetti 2 integral format.
 Two-electron integral symmetry is turned on.
 One-electron integrals computed using PRISM.
   1 Symmetry operations used in ECPInt.
 ECPInt:  NShTT=   36315 NPrTT=  221058 LenC2=   27495 LenP2D=   85204.
 LDataN:  DoStor=T MaxTD1= 7 Len=  274
 NBasis=   722 RedAO= T EigKep=  9.90D-04  NBF=   722
 NBsUse=   722 1.00D-06 EigRej= -1.00D+00 NBFU=   722
 Defaulting to unpruned grid for atomic number  79.
 ExpMin= 2.79D-02 ExpMax= 5.61D+05 ExpMxC= 5.42D+03 IAcc=3 IRadAn=         5 AccDes= 0.00D+00
 Harris functional with IExCor=  402 and IRadAn=       5 diagonalized for initial guess.
 HarFok:  IExCor=  402 AccDes= 0.00D+00 IRadAn=         5 IDoV= 1 UseB2=F ITyADJ=14
 ICtDFT=  3500011 ScaDFX=  1.000000  1.000000  1.000000  1.000000
 Defaulting to unpruned grid for atomic number  79.
 Defaulting to unpruned grid for atomic number  79.
 Defaulting to unpruned grid for atomic number  79.
 Defaulting to unpruned grid for atomic number  79.
 Defaulting to unpruned grid for atomic number  79.
 Defaulting to unpruned grid for atomic number  79.
 Defaulting to unpruned grid for atomic number  79.
 Defaulting to unpruned grid for atomic number  79.
 FoFCou: FMM=F IPFlag=           0 FMFlag=      100000 FMFlg1=        2001
         NFxFlg=           0 DoJE=T BraDBF=F KetDBF=T FulRan=T
         wScrn=  0.000000 ICntrl=     500 IOpCl=  0 I1Cent=   200000004 NGrid=           0
         NMat0=    1 NMatS0=      1 NMatT0=    0 NMatD0=    1 NMtDS0=    0 NMtDT0=    0
 Petite list used in FoFCou.
 Requested convergence on RMS density matrix=1.00D-08 within 128 cycles.
 Requested convergence on MAX density matrix=1.00D-06.
 Requested convergence on             energy=1.00D-06.
 No special actions if energy rises.
 Defaulting to unpruned grid for atomic number  79.
 Defaulting to unpruned grid for atomic number  79.
 Defaulting to unpruned grid for atomic number  79.
 Defaulting to unpruned grid for atomic number  79.
 Defaulting to unpruned grid for atomic number  79.
 Defaulting to unpruned grid for atomic number  79.
 Defaulting to unpruned grid for atomic number  79.
 Defaulting to unpruned grid for atomic number  79.
 EnCoef did     4 forward-backward iterations
 EnCoef did     2 forward-backward iterations
 SCF Done:  E(RB3LYP) =  -5465.93402789     A.U. after   18 cycles
            NFock= 18  Conv=0.61D-08     -V/T= 2.0183

 **********************************************************************

            Population analysis using the SCF density.

 **********************************************************************

 Orbital symmetries:
       Occupied  (A) (A) (A) (A) (A) (A) (A) (A) (A) (A) (A) (A)
                 (A) (A) (A) (A) (A) (A) (A) (A) (A) (A) (A) (A)
                 (A) (A) (A) (A) (A) (A) (A) (A) (A) (A) (A) (A)
                 (A) (A) (A) (A) (A) (A) (A) (A) (A) (A) (A) (A)
                 (A) (A) (A) (A) (A) (A) (A) (A) (A) (A) (A) (A)
                 (A) (A) (A) (A) (A) (A) (A) (A) (A) (A) (A) (A)
                 (A) (A) (A) (A) (A) (A) (A) (A) (A) (A) (A) (A)
                 (A) (A) (A) (A) (A) (A) (A) (A) (A) (A) (A) (A)
                 (A) (A) (A) (A) (A) (A) (A) (A) (A) (A) (A) (A)
                 (A) (A) (A) (A) (A) (A) (A) (A) (A) (A) (A) (A)
                 (A) (A) (A) (A) (A) (A) (A) (A) (A) (A) (A) (A)
                 (A) (A) (A) (A) (A) (A) (A) (A) (A) (A) (A) (A)
                 (A) (A) (A) (A) (A) (A) (A) (A) (A) (A) (A) (A)
                 (A) (A) (A) (A) (A) (A) (A) (A) (A) (A) (A) (A)
                 (A) (A) (A) (A) (A) (A) (A) (A) (A) (A) (A) (A)
                 (A) (A) (A) (A) (A) (A) (A) (A) (A) (A) (A)
       Virtual   (A) (A) (A) (A) (A) (A) (A) (A) (A) (A) (A) (A)
                 (A) (A) (A) (A) (A) (A) (A) (A) (A) (A) (A) (A)
                 (A) (A) (A) (A) (A) (A) (A) (A) (A) (A) (A) (A)
                 (A) (A) (A) (A) (A) (A) (A) (A) (A) (A) (A) (A)
                 (A) (A) (A) (A) (A) (A) (A) (A) (A) (A) (A) (A)
                 (A) (A) (A) (A) (A) (A) (A) (A) (A) (A) (A) (A)
                 (A) (A) (A) (A) (A) (A) (A) (A) (A) (A) (A) (A)
                 (A) (A) (A) (A) (A) (A) (A) (A) (A) (A) (A) (A)
                 (A) (A) (A) (A) (A) (A) (A) (A) (A) (A) (A) (A)
                 (A) (A) (A) (A) (A) (A) (A) (A) (A) (A) (A) (A)
                 (A) (A) (A) (A) (A) (A) (A) (A) (A) (A) (A) (A)
                 (A) (A) (A) (A) (A) (A) (A) (A) (A) (A) (A) (A)
                 (A) (A) (A) (A) (A) (A) (A) (A) (A) (A) (A) (A)
                 (A) (A) (A) (A) (A) (A) (A) (A) (A) (A) (A) (A)
                 (A) (A) (A) (A) (A) (A) (A) (A) (A) (A) (A) (A)
                 (A) (A) (A) (A) (A) (A) (A) (A) (A) (A) (A) (A)
                 (A) (A) (A) (A) (A) (A) (A) (A) (A) (A) (A) (A)
                 (A) (A) (A) (A) (A) (A) (A) (A) (A) (A) (A) (A)
                 (A) (A) (A) (A) (A) (A) (A) (A) (A) (A) (A) (A)
                 (A) (A) (A) (A) (A) (A) (A) (A) (A) (A) (A) (A)
                 (A) (A) (A) (A) (A) (A) (A) (A) (A) (A) (A) (A)
                 (A) (A) (A) (A) (A) (A) (A) (A) (A) (A) (A) (A)
                 (A) (A) (A) (A) (A) (A) (A) (A) (A) (A) (A) (A)
                 (A) (A) (A) (A) (A) (A) (A) (A) (A) (A) (A) (A)
                 (A) (A) (A) (A) (A) (A) (A) (A) (A) (A) (A) (A)
                 (A) (A) (A) (A) (A) (A) (A) (A) (A) (A) (A) (A)
                 (A) (A) (A) (A) (A) (A) (A) (A) (A) (A) (A) (A)
                 (A) (A) (A) (A) (A) (A) (A) (A) (A) (A) (A) (A)
                 (A) (A) (A) (A) (A) (A) (A) (A) (A) (A) (A) (A)
                 (A) (A) (A) (A) (A) (A) (A) (A) (A) (A) (A) (A)
                 (A) (A) (A) (A) (A) (A) (A) (A) (A) (A) (A) (A)
                 (A) (A) (A) (A) (A) (A) (A) (A) (A) (A) (A) (A)
                 (A) (A) (A) (A) (A) (A) (A) (A) (A) (A) (A) (A)
                 (A) (A) (A) (A) (A) (A) (A) (A) (A) (A) (A) (A)
                 (A) (A) (A) (A) (A) (A) (A) (A) (A) (A) (A) (A)
                 (A) (A) (A) (A) (A) (A) (A) (A) (A) (A) (A) (A)
                 (A) (A) (A) (A) (A) (A) (A) (A) (A) (A) (A) (A)
                 (A) (A) (A) (A) (A) (A) (A) (A) (A) (A) (A) (A)
                 (A) (A) (A) (A) (A) (A) (A) (A) (A) (A) (A) (A)
                 (A) (A) (A) (A) (A) (A) (A) (A) (A) (A) (A) (A)
                 (A) (A) (A) (A) (A) (A) (A) (A) (A) (A) (A) (A)
                 (A) (A) (A) (A) (A) (A) (A) (A) (A) (A) (A) (A)
                 (A) (A) (A) (A) (A) (A) (A) (A) (A) (A) (A) (A)
                 (A) (A) (A) (A) (A) (A) (A) (A) (A) (A) (A) (A)
                 (A) (A) (A)
 The electronic state is 1-A.
 Alpha  occ. eigenvalues -- -453.54333 -88.85547 -88.85405 -77.13347 -57.26252
 Alpha  occ. eigenvalues --  -52.03813 -52.03737 -52.03443 -19.20281 -19.15047
 Alpha  occ. eigenvalues --  -19.14391 -19.13341 -19.12296 -19.11523 -19.10886
 Alpha  occ. eigenvalues --  -14.37319 -14.37164 -14.35409 -14.35073 -14.31830
 Alpha  occ. eigenvalues --  -14.31205 -10.33152 -10.30793 -10.29274 -10.28795
 Alpha  occ. eigenvalues --  -10.28268 -10.24975 -10.24971 -10.23309 -10.22889
 Alpha  occ. eigenvalues --  -10.22607 -10.22313 -10.22026 -10.22001 -10.21770
 Alpha  occ. eigenvalues --  -10.21605 -10.21374 -10.21371 -10.21306 -10.20184
 Alpha  occ. eigenvalues --  -10.19974 -10.19592 -10.18917 -10.18906 -10.18787
 Alpha  occ. eigenvalues --   -7.93021  -7.92842  -7.61265  -6.61233  -5.89421
 Alpha  occ. eigenvalues --   -5.89234  -5.89031  -5.88911  -5.88527  -5.88304
 Alpha  occ. eigenvalues --   -5.74280  -5.74006  -5.72965  -4.77352  -4.77348
 Alpha  occ. eigenvalues --   -4.77210  -4.23612  -2.37430  -2.37257  -2.35256
 Alpha  occ. eigenvalues --   -2.10491  -2.10466  -2.09607  -2.09388  -2.09179
 Alpha  occ. eigenvalues --   -1.11908  -1.05627  -1.04365  -1.03851  -1.03178
 Alpha  occ. eigenvalues --   -1.02734  -1.01766  -0.94886  -0.93426  -0.93283
 Alpha  occ. eigenvalues --   -0.92332  -0.92062  -0.88956  -0.82644  -0.81836
 Alpha  occ. eigenvalues --   -0.80057  -0.78393  -0.77822  -0.77436  -0.75564
 Alpha  occ. eigenvalues --   -0.75143  -0.75030  -0.72674  -0.71891  -0.70707
 Alpha  occ. eigenvalues --   -0.69446  -0.68516  -0.65176  -0.64972  -0.64201
 Alpha  occ. eigenvalues --   -0.62721  -0.62570  -0.62456  -0.61570  -0.60034
 Alpha  occ. eigenvalues --   -0.59603  -0.59228  -0.58248  -0.57809  -0.56408
 Alpha  occ. eigenvalues --   -0.54166  -0.52840  -0.52053  -0.50991  -0.50568
 Alpha  occ. eigenvalues --   -0.50464  -0.50093  -0.49755  -0.49479  -0.49397
 Alpha  occ. eigenvalues --   -0.48568  -0.48035  -0.47961  -0.47794  -0.47437
 Alpha  occ. eigenvalues --   -0.46914  -0.46535  -0.46206  -0.46012  -0.45433
 Alpha  occ. eigenvalues --   -0.44823  -0.44649  -0.44239  -0.43925  -0.43745
 Alpha  occ. eigenvalues --   -0.43660  -0.42959  -0.42655  -0.42390  -0.42022
 Alpha  occ. eigenvalues --   -0.41807  -0.41679  -0.41305  -0.41122  -0.40922
 Alpha  occ. eigenvalues --   -0.40810  -0.40309  -0.40232  -0.39923  -0.39773
 Alpha  occ. eigenvalues --   -0.39604  -0.39349  -0.39022  -0.38662  -0.38321
 Alpha  occ. eigenvalues --   -0.38191  -0.37908  -0.37824  -0.37602  -0.37422
 Alpha  occ. eigenvalues --   -0.37081  -0.36571  -0.36332  -0.36074  -0.35490
 Alpha  occ. eigenvalues --   -0.34113  -0.33949  -0.33815  -0.33093  -0.33012
 Alpha  occ. eigenvalues --   -0.31904  -0.31609  -0.30240  -0.29362  -0.29254
 Alpha  occ. eigenvalues --   -0.28477  -0.27825  -0.27048  -0.26801  -0.26491
 Alpha  occ. eigenvalues --   -0.25987  -0.25878  -0.25797  -0.25196  -0.24920
 Alpha  occ. eigenvalues --   -0.24688  -0.24186  -0.24040  -0.23605  -0.21649
 Alpha  occ. eigenvalues --   -0.19760
 Alpha virt. eigenvalues --   -0.10475  -0.02875  -0.01755  -0.01214  -0.00715
 Alpha virt. eigenvalues --   -0.00143  -0.00036   0.01003   0.01214   0.02175
 Alpha virt. eigenvalues --    0.02706   0.03594   0.04037   0.04373   0.05557
 Alpha virt. eigenvalues --    0.05796   0.06616   0.06818   0.07295   0.08230
 Alpha virt. eigenvalues --    0.08272   0.08692   0.09043   0.09515   0.10104
 Alpha virt. eigenvalues --    0.10541   0.11126   0.11408   0.11774   0.12230
 Alpha virt. eigenvalues --    0.12833   0.12928   0.13454   0.13655   0.14085
 Alpha virt. eigenvalues --    0.14309   0.14404   0.15009   0.15177   0.15339
 Alpha virt. eigenvalues --    0.15944   0.16089   0.16400   0.16547   0.16824
 Alpha virt. eigenvalues --    0.17138   0.17446   0.17675   0.17749   0.17995
 Alpha virt. eigenvalues --    0.18330   0.18538   0.18754   0.19016   0.19429
 Alpha virt. eigenvalues --    0.19582   0.19866   0.20100   0.20292   0.20474
 Alpha virt. eigenvalues --    0.20746   0.21294   0.21498   0.21847   0.22160
 Alpha virt. eigenvalues --    0.22570   0.22958   0.23360   0.23702   0.23810
 Alpha virt. eigenvalues --    0.24461   0.24594   0.24626   0.24893   0.25479
 Alpha virt. eigenvalues --    0.26103   0.26456   0.27040   0.27535   0.28239
 Alpha virt. eigenvalues --    0.28684   0.30038   0.31810   0.32624   0.32953
 Alpha virt. eigenvalues --    0.33743   0.34446   0.34675   0.35189   0.35410
 Alpha virt. eigenvalues --    0.36149   0.36564   0.37093   0.37574   0.37910
 Alpha virt. eigenvalues --    0.38332   0.39698   0.40008   0.41071   0.41363
 Alpha virt. eigenvalues --    0.41773   0.42271   0.42647   0.43097   0.44202
 Alpha virt. eigenvalues --    0.45137   0.45569   0.46495   0.46949   0.47131
 Alpha virt. eigenvalues --    0.47746   0.48151   0.48689   0.49032   0.49735
 Alpha virt. eigenvalues --    0.50532   0.51159   0.51641   0.52108   0.52924
 Alpha virt. eigenvalues --    0.53278   0.53518   0.54115   0.54405   0.54737
 Alpha virt. eigenvalues --    0.55130   0.55510   0.56188   0.56431   0.57046
 Alpha virt. eigenvalues --    0.57239   0.57253   0.57952   0.58226   0.58433
 Alpha virt. eigenvalues --    0.58742   0.59493   0.59887   0.59953   0.60502
 Alpha virt. eigenvalues --    0.61172   0.61420   0.61617   0.61804   0.62099
 Alpha virt. eigenvalues --    0.62814   0.63218   0.63415   0.64281   0.64542
 Alpha virt. eigenvalues --    0.65237   0.65476   0.65907   0.66224   0.66306
 Alpha virt. eigenvalues --    0.66667   0.67040   0.67292   0.67845   0.68121
 Alpha virt. eigenvalues --    0.68704   0.69246   0.69453   0.69619   0.70210
 Alpha virt. eigenvalues --    0.70400   0.71418   0.71905   0.72365   0.72682
 Alpha virt. eigenvalues --    0.73002   0.73149   0.73977   0.74615   0.74983
 Alpha virt. eigenvalues --    0.75319   0.75908   0.76339   0.76997   0.77369
 Alpha virt. eigenvalues --    0.77618   0.78260   0.78500   0.79165   0.79732
 Alpha virt. eigenvalues --    0.80112   0.80394   0.80905   0.81049   0.81484
 Alpha virt. eigenvalues --    0.82389   0.82725   0.82817   0.83280   0.83439
 Alpha virt. eigenvalues --    0.83665   0.84024   0.84224   0.84541   0.84738
 Alpha virt. eigenvalues --    0.84950   0.85360   0.85588   0.85784   0.86197
 Alpha virt. eigenvalues --    0.86414   0.87059   0.87249   0.87510   0.87599
 Alpha virt. eigenvalues --    0.88005   0.88465   0.88620   0.88810   0.89351
 Alpha virt. eigenvalues --    0.89380   0.89668   0.90052   0.90223   0.90465
 Alpha virt. eigenvalues --    0.90782   0.91033   0.91267   0.91481   0.91843
 Alpha virt. eigenvalues --    0.92275   0.92433   0.92604   0.93832   0.94053
 Alpha virt. eigenvalues --    0.94183   0.94343   0.95056   0.95364   0.95563
 Alpha virt. eigenvalues --    0.95764   0.96072   0.96505   0.96666   0.97227
 Alpha virt. eigenvalues --    0.97814   0.98283   0.98895   0.99172   0.99465
 Alpha virt. eigenvalues --    0.99836   1.00075   1.00364   1.00667   1.01381
 Alpha virt. eigenvalues --    1.01720   1.01773   1.02640   1.03471   1.03821
 Alpha virt. eigenvalues --    1.03984   1.04305   1.04762   1.05157   1.05497
 Alpha virt. eigenvalues --    1.05929   1.06517   1.07386   1.08443   1.09033
 Alpha virt. eigenvalues --    1.09627   1.10038   1.10458   1.11085   1.11399
 Alpha virt. eigenvalues --    1.12153   1.12865   1.13310   1.13967   1.14317
 Alpha virt. eigenvalues --    1.15374   1.15785   1.16099   1.18113   1.18738
 Alpha virt. eigenvalues --    1.19046   1.19435   1.20298   1.21002   1.21870
 Alpha virt. eigenvalues --    1.22926   1.23421   1.24473   1.25319   1.25500
 Alpha virt. eigenvalues --    1.26103   1.27448   1.28357   1.29300   1.29622
 Alpha virt. eigenvalues --    1.31185   1.31715   1.32619   1.34481   1.34820
 Alpha virt. eigenvalues --    1.36326   1.36807   1.37071   1.37830   1.38220
 Alpha virt. eigenvalues --    1.39362   1.39641   1.40891   1.41243   1.41631
 Alpha virt. eigenvalues --    1.42899   1.44640   1.45746   1.46995   1.47441
 Alpha virt. eigenvalues --    1.48413   1.48669   1.49197   1.50358   1.50480
 Alpha virt. eigenvalues --    1.51478   1.51546   1.52301   1.53217   1.53385
 Alpha virt. eigenvalues --    1.54262   1.55326   1.55827   1.56618   1.56752
 Alpha virt. eigenvalues --    1.57417   1.57998   1.59367   1.60359   1.61217
 Alpha virt. eigenvalues --    1.61967   1.62494   1.63235   1.63812   1.65519
 Alpha virt. eigenvalues --    1.65629   1.66833   1.69022   1.69277   1.69761
 Alpha virt. eigenvalues --    1.70118   1.70498   1.72674   1.73168   1.73392
 Alpha virt. eigenvalues --    1.74533   1.75487   1.76290   1.76747   1.78119
 Alpha virt. eigenvalues --    1.78178   1.78460   1.79937   1.80098   1.80370
 Alpha virt. eigenvalues --    1.80936   1.82058   1.82480   1.82606   1.82886
 Alpha virt. eigenvalues --    1.84288   1.84546   1.85051   1.85204   1.85834
 Alpha virt. eigenvalues --    1.86678   1.88400   1.88860   1.89548   1.89874
 Alpha virt. eigenvalues --    1.90598   1.90959   1.91207   1.91737   1.92139
 Alpha virt. eigenvalues --    1.92907   1.93156   1.93638   1.93802   1.94294
 Alpha virt. eigenvalues --    1.94541   1.94718   1.95059   1.95220   1.95557
 Alpha virt. eigenvalues --    1.95712   1.95798   1.96897   1.97152   1.97545
 Alpha virt. eigenvalues --    1.98181   1.98519   1.98644   1.99297   1.99446
 Alpha virt. eigenvalues --    1.99565   1.99972   2.00109   2.00817   2.01093
 Alpha virt. eigenvalues --    2.01569   2.01920   2.02580   2.03865   2.05088
 Alpha virt. eigenvalues --    2.05678   2.06423   2.07159   2.07401   2.08100
 Alpha virt. eigenvalues --    2.08313   2.09946   2.10047   2.11025   2.11594
 Alpha virt. eigenvalues --    2.11821   2.12492   2.13124   2.13741   2.14372
 Alpha virt. eigenvalues --    2.15086   2.15619   2.16065   2.16735   2.17394
 Alpha virt. eigenvalues --    2.17781   2.18328   2.19013   2.19730   2.20042
 Alpha virt. eigenvalues --    2.20427   2.21256   2.21585   2.22482   2.24028
 Alpha virt. eigenvalues --    2.24845   2.25325   2.25741   2.26556   2.26730
 Alpha virt. eigenvalues --    2.28039   2.28455   2.29124   2.29721   2.30159
 Alpha virt. eigenvalues --    2.30255   2.30608   2.30941   2.31358   2.31568
[...]
 ,0.00000243,0.00000074,-0.00000031,-0.00000112,0.00000192,-0.00000854,
 0.00000894,0.00000069,-0.00001353,0.00000106,-0.00000165,0.00001167,0.
 00000092,0.00000400,0.00000486,-0.00020012,0.00073914,-0.00058485,-0.0
 0001001,0.00000305,0.00000945,0.00000618,-0.00000002,-0.00000226,0.000
 01033,0.00000595,-0.00002282,-0.00001415,-0.00000804,0.00001073,0.0000
 2102,0.00000428,-0.00001269,-0.00002363,-0.00000374,0.00001731,-0.0000
 1892,-0.00000041,0.00001468,0.00000435,0.00000341,0.00000042,0.0000651
 3,-0.00004252,-0.00003506,-0.00002241,0.00003117,0.00002920,-0.0000697
 8,0.00001582,0.00000644,0.00000088,-0.00001811,-0.00000991,0.00003874,
 0.00003424,0.00003582,-0.00003250,-0.00002749,-0.00002332,0.00005781,0
 .00004541,-0.00000677,-0.00000298,0.00017692,-0.00008970,-0.00002941,-
 0.00000553,-0.00000885,0.00000686,0.00000231,0.00000982,0.00000608,-0.
 00001382,-0.00002762,0.00011916,0.00012895,-0.00002718,-0.00013909,-0.
 00004201,-0.00000166,-0.00004438,-0.00008124,0.00005909,0.00002339,0.0
 0002233,0.00002037,0.00002678,0.00003249,-0.00003422,-0.00001085,-0.00
 001940,0.00002114,-0.00002020,-0.00002478,0.00000927,-0.00000299,0.000
 00245,0.00000302,-0.00000010,-0.00000170,-0.00000042,0.00000378,0.0000
 0130,-0.00000956,0.00000172,-0.00000045,-0.00000013,0.00000262,-0.0000
 0140,-0.00000424,0.00000085,-0.00000232,-0.00000299,-0.00000327,0.0000
 0013,0.00000150,0.00000229,-0.00000230,0.00000121,0.00001317,-0.000001
 50,-0.00000011,-0.00003066,-0.00001562,-0.00001496,-0.00001401,-0.0000
 0958,0.00000258,-0.00001083,0.00000289,0.00000253,0.00003300,-0.000010
 64,-0.00000073,-0.00001451,0.00000389,0.00000576,0.00000405,0.00001370
 ,0.00001000,-0.00000435,0.00000114,-0.00000261,0.00002598,-0.00000288,
 -0.00000939,-0.00000559,-0.00000313,-0.00000619,-0.00000480,-0.0000018
 8,-0.00000410,0.,0.00000988,-0.00001636,-0.00000076,0.00000699,-0.0000
 0081,0.00002584,-0.00002163,0.00006594,-0.00147745,0.00366126,0.004530
 58,-0.00039297,-0.00055836,0.00060051,-0.00726616,0.02157883,-0.011802
 29,0.00312053,0.00073709,0.00567655,-0.00035950,-0.00055089,-0.0005538
 7,-0.11512032,0.10714814,-0.04968903,-0.00046990,-0.00167026,-0.000962
 42,0.00040962,-0.00025383,0.00046120,0.11289326,-0.00007618,0.00000670
 ,-0.00013315,0.00002129,0.00011253,0.00009257,-0.00000522,-0.00001378,
 -0.00003217,-0.00000629,-0.00001167,-0.00000093,0.00000328,0.00000920,
 0.00000206,-0.00001050,-0.00003421,-0.00001777,0.00000215,-0.00000976,
 -0.00001706,0.00002726,0.00000818,0.00002717,-0.00002165,-0.00001268,-
 0.00002453,-0.00000331,0.00000104,0.00000188,-0.00000304,0.00000640,0.
 00000359,0.00000688,0.00000425,0.00003056,0.00000457,0.00000216,-0.000
 00786,0.00000248,0.00000585,-0.00001242,-0.00000499,-0.00001011,-0.000
 00054,0.00001903,-0.00000215,0.00000649,0.00000121,-0.00000762,-0.0000
 0522,-0.00000240,0.00000189,-0.00000317,-0.00000312,-0.00000026,0.0000
 0108,0.00000590,-0.00000264,0.00001265,-0.00001662,-0.00000074,0.00001
 216,0.00000116,0.00000400,-0.00001390,-0.00000200,-0.00000614,-0.00000
 620,0.00020346,-0.00031790,0.00019791,0.00001092,-0.00000487,-0.000011
 75,-0.00000708,0.00000042,0.00000254,-0.00001103,0.00000200,0.00002167
 ,0.00001643,-0.00000125,-0.00001073,-0.00002082,-0.00000285,0.00001357
 ,0.00002317,0.00000149,-0.00001875,0.00002057,-0.00000291,-0.00001294,
 -0.00000474,-0.00000057,-0.00000143,-0.00006506,0.00004546,0.00003699,
 0.00002151,-0.00003501,-0.00003148,0.00007008,-0.00001927,-0.00000627,
 -0.00000545,0.00001673,0.00001306,-0.00003819,-0.00001210,-0.00003714,
 0.00003509,0.00001195,0.00001951,-0.00003772,-0.00003428,0.00001399,0.
 00004039,-0.00006359,0.00003159,0.00003407,-0.00001203,0.00001027,-0.0
 0000815,0.00001582,-0.00000121,-0.00000691,0.00000966,0.00003417,-0.00
 009452,-0.00008728,0.00003681,0.00009807,0.00002939,-0.00000974,0.0000
 4129,0.00005280,-0.00005101,-0.00002135,-0.00001549,-0.00001701,-0.000
 03028,-0.00002978,0.00003692,0.00001338,0.00001580,-0.00002397,0.00002
 276,0.00002139,-0.00001013,0.00000306,-0.00000314,-0.00000367,0.,0.000
 00165,0.00000093,-0.00000299,-0.00000029,0.00001013,-0.00000156,0.,0.0
 0000015,-0.00000308,0.00000201,0.00000514,-0.00000122,0.00000318,0.000
 00369,0.00000324,-0.00000071,-0.00000167,-0.00000270,0.00000254,-0.000
 00120,-0.00001533,0.00000297,0.00000076,0.00002400,0.00000383,0.000009
 92,0.00000814,0.00000062,-0.00000879,0.00000895,-0.00000294,-0.0000021
 7,-0.00002853,0.00001026,-0.00000028,0.00001781,0.00000076,-0.00000985
 ,-0.00001010,-0.00001134,-0.00000769,0.00000467,-0.00000384,-0.0000001
 6,-0.00002184,0.00000551,0.00001006,0.00000275,0.00000156,0.00000423,0
 .00000347,0.00000254,0.00000314,-0.00000314,-0.00000437,0.00001617,-0.
 00000235,-0.00000503,0.00000182,-0.00002366,-0.00002443,-0.00007206,0.
 00364387,0.00328662,0.00097840,-0.00008529,0.00013517,-0.00052719,0.00
 548614,-0.00515768,0.00723410,0.00174737,0.00490236,0.00375423,-0.0004
 1922,-0.00074729,-0.00053797,0.10662831,-0.21385799,0.09318628,-0.0011
 4509,-0.00096895,-0.00161841,0.00042242,-0.00009188,0.00033593,-0.1141
 3607,0.22314199,0.00006778,-0.00015775,-0.00011470,0.00001241,-0.00000
 667,0.00001058,0.00000303,0.00000949,0.00000651,-0.00000277,0.00000427
 ,0.00000195,-0.00000026,-0.00000011,-0.00000112,0.00000225,-0.00000069
 ,-0.00000217,-0.00000080,0.00000273,0.00000039,-0.00000588,-0.00000539
 ,-0.00000646,0.00000611,0.00000307,0.00000497,0.00000142,0.00000138,0.
 00000143,-0.00000061,0.00000182,0.00000033,-0.00000918,-0.00001606,-0.
 00001067,-0.00000224,-0.00000139,-0.00000152,0.00001220,-0.00000448,0.
 00000546,-0.00000156,0.00000142,-0.00000208,-0.00000759,0.00000156,-0.
 00000265,-0.00000109,0.00000351,0.00000227,0.00000108,-0.00000140,-0.0
 0000075,0.00000117,-0.00000115,-0.00000046,0.00000226,0.00000203,-0.00
 000116,0.00000317,-0.00000144,0.00000059,0.00000045,-0.00000246,-0.000
 00140,-0.00000306,0.00000268,0.00000126,-0.00014342,-0.00019988,0.0004
 0340,-0.00000448,0.00000124,0.00000305,0.00000270,-0.00000007,-0.00000
 073,0.00000313,-0.00000007,-0.00000372,-0.00000612,0.00000013,0.000001
 66,0.00000916,0.00000137,-0.00000414,-0.00001152,-0.00000147,0.0000035
 3,-0.00000694,0.00000049,0.00000202,0.00000175,-0.00000010,0.00000076,
 0.00001868,-0.00001046,-0.00000787,-0.00000760,0.00000851,0.00000576,-
 0.00001911,0.00000504,0.00000077,-0.00000019,-0.00000271,-0.00000252,0
 .00001617,0.00000488,0.00001892,-0.00001340,-0.00000756,-0.00001085,0.
 00000793,-0.00000077,0.00001999,-0.00001536,0.00001007,0.00001246,-0.0
 0001290,0.00000315,-0.00000629,-0.00000415,-0.00000655,0.00000633,0.00
 001108,0.00002464,-0.00000207,0.00002855,0.00002346,-0.00001270,-0.000
 02320,-0.00001123,-0.00000017,-0.00001467,-0.00001512,0.00001474,0.000
 00881,0.00000807,0.00000614,0.00001681,0.00001417,-0.00000360,-0.00000
 856,-0.00000648,0.00000123,-0.00001233,-0.00001157,0.00000109,-0.00000
 098,0.00000072,0.00000099,0.00000009,-0.00000021,-0.00000008,0.0000024
 5,-0.00000005,-0.00000068,0.00000034,0.00000003,-0.00000010,0.00000131
 ,-0.00000047,-0.00000114,0.00000026,-0.00000109,-0.00000135,-0.0000008
 7,0.00000028,0.00000067,0.00000087,-0.00000084,0.00000013,0.00000529,-
 0.00000058,0.00000021,0.00000350,-0.00000271,-0.00000007,0.00000211,-0
 .00000917,-0.00000092,-0.00000270,0.00000107,0.00000010,0.00000723,-0.
 00000314,0.00000158,-0.00000216,0.00000046,-0.00000555,0.00000656,0.00
 000615,0.00000470,-0.00000284,0.00000255,0.00000125,0.00000633,-0.0000
 0151,-0.00000132,-0.00000083,-0.00000082,-0.00000170,-0.00000116,-0.00
 000091,-0.00000131,0.00000371,0.00000045,-0.00000357,0.00000168,0.0000
 0278,0.00000009,-0.00000691,-0.00003423,-0.00000642,0.00461663,0.00107
 063,0.00148556,-0.00008489,0.00003805,-0.00036197,0.00690824,-0.008831
 27,0.00918762,0.00461197,0.00465903,-0.00022313,-0.00068205,-0.0004799
 2,-0.00032806,-0.04929160,0.09263926,-0.09848444,-0.00157066,-0.001094
 04,-0.00055784,-0.00031571,0.00099921,-0.00027991,0.04566488,-0.112889
 44,0.11101392,0.00018755,-0.00071478,-0.00008734,-0.00025665,-0.000821
 27,-0.00024272,-0.00001189,0.00010370,0.00014432,0.00009223,0.00003324
 ,-0.00001765,0.00000816,-0.00004389,-0.00001237,0.00012949,0.00023007,
 0.00005981,-0.00001696,0.00006812,0.00009849,-0.00020331,-0.00012036,-
 0.00013816,0.00017827,0.00013864,0.00009101,0.00004050,-0.00002754,-0.
 00000817,-0.00000497,-0.00001767,-0.00001713,0.00003540,0.00003748,-0.
 00008232,-0.00004055,0.00000440,0.00007444,-0.00014882,-0.00003285,0.0
 0001086,0.00005268,0.00008328,0.00000027,-0.00011967,0.00000209,-0.000
 02454,-0.00000460,0.00004728,0.00002966,0.00001117,-0.00001256,0.00000
 334,0.00002237,0.00001256,-0.00000619,-0.00002303,0.00000275,-0.000055
 83,0.00009751,-0.00001216,-0.00004898,0.00000234,-0.00002722,0.0000178
 7,-0.00000155,0.00004818,0.00002698,-0.00479213,0.00083131,0.00198196,
 -0.00005724,0.00002586,0.00005384,0.00003695,-0.00000222,-0.00001211,0
 .00004927,-0.00004039,-0.00005979,-0.00008700,0.00004398,0.00002731,0.
 00010869,0.00000481,-0.00005908,-0.00012357,0.00000174,0.00007693,-0.0
 0010246,0.00002230,0.00002695,0.00002358,-0.00000616,0.00001750,0.0003
 1560,-0.00022709,-0.00017585,-0.00010544,0.00017865,0.00013848,-0.0003
 4107,0.00010247,0.00001442,0.00001828,-0.00008090,-0.00005777,0.000216
 95,0.00007496,0.00028517,-0.00018674,-0.00008403,-0.00015932,0.0002214
 5,0.00020475,-0.00000951,-0.00018868,0.00060623,-0.00024101,-0.0001839
 6,0.00007905,-0.00012640,0.00008041,-0.00007453,0.00000595,0.00001699,
 -0.00013846,-0.00013359,0.00051017,0.00039126,-0.00009019,-0.00051534,
 -0.00011364,0.00000707,-0.00023222,-0.00021598,0.00021457,0.00012395,0
 .00008200,0.00007824,0.00019841,0.00015768,-0.00012006,-0.00010139,-0.
 00007100,0.00007124,-0.00014981,-0.00011940,0.00003463,-0.00001509,0.0
 0001529,0.00001760,0.00000223,-0.00000373,-0.00000570,0.00001718,-0.00
 000520,-0.00003635,0.00000546,0.00000199,-0.00000177,0.00001744,-0.000
 00951,-0.00002072,0.00000557,-0.00001796,-0.00001966,-0.00001656,0.000
 00507,0.00000966,0.00001454,-0.00001370,0.00000382,0.00007918,-0.00001
 409,0.00000078,-0.00012584,-0.00003304,-0.00006359,-0.00005935,-0.0000
 5502,0.00004014,-0.00005465,0.00001667,0.00000930,0.00015512,-0.000059
 68,0.00000680,-0.00008689,0.00002045,0.00001452,0.00011489,0.00010954,
 0.00002495,-0.00001825,0.00000931,-0.00000566,0.00012131,-0.00003139,-
 0.00003485,-0.00001023,-0.00001236,-0.00001487,-0.00001793,-0.00002018
 ,-0.00001126,0.00004666,-0.00000158,-0.00007411,0.00002674,0.00002221,
 -0.00000625,0.00015281,0.00002443,0.00035204,0.00560517,-0.00652966,-0
 .00726456,-0.01603474,0.03619654,-0.00440166,-0.01591463,0.00025956,0.
 03671323,-0.15202002,0.10448962,-0.03761262,-0.00192244,0.00526839,0.0
 0445639,-0.14905067,-0.02141464,0.10476411,-0.00202468,0.00507346,0.00
 459601,0.00903311,-0.00974477,-0.00128377,0.00910702,-0.00234185,-0.00
 977918,0.31808821,-0.00071554,0.00002782,-0.00038815,-0.00008560,0.000
 32341,0.00024662,-0.00003242,-0.00002331,-0.00004976,0.00001527,-0.000
 02553,-0.00002362,0.00000734,0.00001335,0.00000520,-0.00002464,-0.0000
 7072,-0.00007967,0.00001412,-0.00003708,-0.00004023,0.00007734,-0.0000
 0956,0.00006955,-0.00001662,0.00001020,-0.00003068,-0.00000543,-0.0000
 0677,-0.00000048,-0.00000472,0.00000609,0.00000300,0.00001600,0.000045
 56,0.00010853,0.00001466,0.00000543,-0.00000552,0.00002197,0.00012744,
 -0.00006781,0.00000340,-0.00003962,-0.00000614,0.00003352,-0.00000140,
 0.00001763,0.00000658,-0.00001562,-0.00001105,-0.00000894,0.00000622,-
 0.00000433,-0.00000705,0.00000550,0.00000191,0.00000586,-0.00002148,0.
 00002746,-0.00005321,0.00000229,0.00003007,-0.00000235,0.00000998,-0.0
 0003118,-0.00000096,-0.00002237,-0.00002360,0.00102902,0.00055598,-0.0
 0309087,0.00003415,-0.00001241,-0.00003127,-0.00002217,0.00000123,0.00
 000705,-0.00003120,0.00000397,0.00005250,0.00005372,-0.00000220,-0.000
 02705,-0.00006683,-0.00001104,0.00003802,0.00007858,0.00000668,-0.0000
 4690,0.00006270,-0.00000745,-0.00003058,-0.00001439,0.00000063,-0.0000
 0588,-0.00017524,0.00011215,0.00008913,0.00006215,-0.00008818,-0.00007
 427,0.00018361,-0.00005327,-0.00000917,-0.00000991,0.00004181,0.000032
 31,-0.00014985,-0.00000990,-0.00015745,0.00012482,0.00004225,0.0000852
 5,-0.00008029,-0.00006208,-0.00003998,0.00014324,0.00002832,0.00002903
 ,0.00010900,-0.00004541,0.00005083,0.00006277,0.00009000,-0.00003621,0
 .00003497,-0.00018918,0.00014582,-0.00026842,-0.00026768,0.00016099,0.
 00027157,0.00011633,-0.00004646,0.00013136,0.00017956,-0.00017056,-0.0
 0007043,-0.00006148,-0.00005863,-0.00010606,-0.00010619,0.00009397,0.0
 0004715,0.00005649,-0.00005806,0.00007888,0.00008044,-0.00002562,0.000
 00869,-0.00000797,-0.00000977,-0.00000036,0.00000403,0.00000210,-0.000
 01250,-0.00000079,0.00002024,-0.00000386,-0.00000009,0.00000023,-0.000
 00989,0.00000498,0.00001355,-0.00000300,0.00000876,0.00001072,0.000008
 32,-0.00000264,-0.00000518,-0.00000791,0.00000730,-0.00000255,-0.00004
 838,0.00000830,0.00000081,0.00002544,-0.00000007,0.00001518,-0.0000018
 7,0.00003040,-0.00002477,0.00002436,-0.00001092,-0.00000307,-0.0000668
 7,0.00002906,-0.00000756,0.00008935,0.00002867,-0.00003324,-0.00001373
 ,-0.00005495,0.00000754,0.00002960,-0.00003502,-0.00001743,-0.00007177
 ,0.00002526,0.00002835,0.00001022,0.00000489,0.00001721,0.00000997,0.0
 0000704,0.00001265,-0.00000944,-0.00001780,0.00004437,-0.00000577,-0.0
 0002022,0.00000267,-0.00001943,0.00034025,-0.00030708,-0.00663980,-0.0
 3820791,0.03935263,0.07184904,-0.02075717,-0.02215464,-0.03511030,0.04
 892480,0.00318450,0.09031236,-0.23398993,0.10423979,0.00487686,0.00308
 119,0.00077249,-0.00694523,-0.12612454,0.07321557,0.00519342,0.0031539
 1,0.00103061,0.00421769,-0.01709609,0.01096628,-0.01663777,-0.01025793
 ,0.02426359,-0.11181890,0.39021604,0.00006160,0.00000577,-0.00011371,0
 .00022810,0.00037437,-0.00010159,0.00007174,-0.00004211,0.00001341,-0.
 00007108,0.00000554,0.00002805,-0.00000049,0.00000201,0.00000346,-0.00
 007949,-0.00005315,0.00002251,0.00000872,-0.00003847,-0.00002989,0.000
 08520,0.00005930,0.00001810,-0.00007548,-0.00009759,0.00000315,-0.0000
 2876,0.00002294,-0.00000018,0.00000913,0.00000025,0.00000809,-0.000006
 67,-0.00003784,-0.00015811,-0.00000171,0.00000793,0.00001850,0.0000220
 8,-0.00015168,0.00008034,-0.00003345,0.00003143,0.00002263,0.00004293,
 0.00000567,-0.00000960,0.00000172,-0.00002076,-0.00000797,-0.00000165,
 0.00000463,0.00000866,-0.00001019,-0.00001091,0.00000338,0.00004091,-0
 .00001086,0.00001777,-0.00006900,0.00001259,0.00000962,-0.00001072,0.0
 0001114,0.00002834,0.00000253,-0.00003686,-0.00001309,0.00133882,-0.00
 372442,-0.00009117,0.00001882,-0.00000636,-0.00001071,-0.00001109,-0.0
 0000018,0.00000321,-0.00001035,0.00001575,-0.00000626,0.00002455,-0.00
 001977,0.00000738,-0.00003880,0.00000162,0.00001252,0.00004676,-0.0000
 0156,-0.00001277,0.00003111,-0.00000604,0.00001021,-0.00000687,0.00000
 074,-0.00001014,-0.00010539,0.00007334,0.00005349,0.00003839,-0.000056
 58,-0.00003303,0.00011569,-0.00002985,0.00000340,0.00000320,0.00002472
 ,0.00001969,-0.00007297,-0.00007786,-0.00011465,0.00006056,0.00006094,
 0.00007724,-0.00013345,-0.00015814,0.00004634,0.00011170,-0.00050115,0
 .00023819,0.00004252,-0.00000280,0.00007527,-0.00009698,-0.00000884,0.
 00001483,-0.00003218,0.00019739,0.00001860,-0.00018799,-0.00010695,-0.
 00006210,0.00017409,0.00001921,0.00007190,0.00008551,0.00004323,-0.000
 03363,-0.00004468,-0.00002924,-0.00001700,-0.00008582,-0.00005037,-0.0
 0001642,0.00005095,0.00001566,0.00001788,0.00006499,0.00004321,0.00000
 300,0.00000461,-0.00000353,-0.00000419,-0.00000118,-0.00000168,0.00000
 109,-0.00000926,0.00000318,0.00000362,-0.00000095,-0.00000112,0.000001
 40,-0.00000601,0.00000201,0.00000186,-0.00000090,0.00000590,0.00000609
 ,0.00000628,-0.00000130,-0.00000376,-0.00000499,0.00000491,-0.00000009
 ,-0.00002300,0.00000095,-0.00000451,0.00009966,0.00002954,0.00004762,0
 .00006131,0.00002844,-0.00002177,0.00003111,-0.00000552,-0.00000636,-0
 .00007856,0.00002366,0.00000118,0.00000915,-0.00002746,-0.00000106,-0.
 00009706,-0.00004108,-0.00004530,-0.00000551,0.00001596,0.00001397,-0.
 00004668,0.00000130,0.00000067,0.00000108,0.00000825,-0.00000031,0.000
 00669,0.00000931,-0.00000038,-0.00003238,0.00001193,0.00001382,-0.0000
 1641,-0.00000522,-0.00000068,-0.00002879,-0.00019075,0.00007966,-0.006
 98814,0.03969378,-0.04773930,-0.04498160,0.01361178,0.05245370,0.07767
 635,-0.03196085,-0.01858528,-0.02106532,0.08900823,-0.15166065,0.00436
 363,0.00101732,0.00260306,0.08826361,0.08798416,-0.25575138,0.00443126
 ,0.00103666,0.00271913,-0.01771355,0.02525691,-0.01521254,0.00655652,0
 .00998476,-0.02177503,-0.09197802,-0.23125947,0.45274857\\0.00000482,-
 0.00000801,-0.00000479,-0.00000107,0.00000017,-0.00000358,-0.00000713,
 0.00000938,0.00000812,-0.00000003,-0.00000176,0.00000477,-0.00000070,-
 0.00000063,0.00000588,0.00000636,-0.00000453,0.00001260,-0.00000361,-0
 .00000124,0.00000393,-0.00000483,-0.00000209,0.00000343,-0.00001193,0.
 00000209,-0.00000011,0.00000005,-0.00000095,0.00000474,-0.00000027,-0.
 00000046,0.00000204,0.00000329,-0.00000395,0.00000662,-0.00000193,0.00
 000114,0.00000547,0.00000164,0.00000257,0.00000304,-0.00000092,0.00000
 228,0.00000716,0.00000304,0.00000064,0.00000837,-0.00000346,-0.0000010
 8,0.00000420,-0.00000527,-0.00000452,0.00000216,-0.00000458,-0.0000001
 7,0.00000649,-0.00000923,-0.00000086,-0.00000379,-0.00000138,-0.000002
 10,0.00000258,-0.00000043,-0.00000218,0.00000315,-0.00000289,-0.000004
 28,0.00000197,0.00000363,-0.00000395,0.00000051,-0.00000896,-0.0000037
 8,-0.00000190,0.00000381,0.00000500,0.00000014,0.00000769,-0.00001128,
 0.00001007,-0.00000132,0.00000832,-0.00000780,-0.00000915,-0.00000552,
 -0.00000285,0.00000128,0.00000046,0.00000191,-0.00000771,-0.00000186,-
 0.00001853,0.00000813,0.00000364,0.00000737,-0.00000290,0.00001367,-0.
 00001767,0.00000336,-0.00000685,0.00000620,-0.00000206,-0.00000140,0.0
 0001524,0.00001311,0.00001065,-0.00000284,-0.00000313,-0.00000821,-0.0
 0001262,0.00000806,0.00000640,0.00000353,-0.00000482,0.00000176,0.0000
 0177,-0.00000044,0.00001112,0.00000212,0.00000968,-0.00001013,0.000010
 11,-0.00000626,0.00000358,-0.00000705,-0.00000099,0.00000674,0.0000020
 5,0.00002458,0.00002091,0.00000960,-0.00001569,-0.00001191,-0.00001162
 ,-0.00000958,-0.00001655,-0.00001037,0.00000343,0.00001210,-0.00000077
 ,0.00000510,-0.00001445,-0.00000366,-0.00000484,-0.00000036,-0.0000069
 5,-0.00000236,0.00000108,-0.00000816,0.00000089,-0.00000276,-0.0000001
 2,-0.00000191,-0.00000117,-0.00000207,-0.00000334,-0.00000254,-0.00000
 131,-0.00000307,-0.00000257,0.00000068,-0.00000018,-0.00000123,-0.0000
 0448,0.00000010,-0.00000213,-0.00000463,-0.00000068,-0.00000149,-0.000
 00130,0.00000142,0.00000268,-0.00000106,0.00000182,-0.00000045,-0.0000
 0217,0.00000269,0.00000240,0.00000226,0.00000621,0.00000179,0.00000279
 ,0.00000190,-0.00000008,-0.00000051,0.00000402,0.00000286,0.,0.0000057
 6,-0.00000128,-0.00000556,0.00000639,-0.00000236,-0.00000512,0.0000019
 3,0.00000373,-0.00000891,-0.00000239,0.00000414,-0.00000435,-0.0000003
 0,-0.00000334,-0.00000488,-0.00000186,-0.00000175,-0.00000927,0.000001
 01,-0.00000185,-0.00000238,-0.00000110,-0.00000372,-0.00000916,0.00000
 070,0.00000448,0.00000373,0.00000180,-0.00000241,-0.00000020,-0.000000
 16,0.00000251,0.00000590,-0.00000398,0.00000261,0.00000028,0.00000159,
 0.00000271,0.00000229,0.00000023,0.00000374,0.00000038,0.00000452,0.00
 000384,0.00000372,-0.00000005,-0.00000166,-0.00000071,0.00000278,0.000
 00439,0.00000298,0.00000008,0.00000069,0.00000044,0.00000199,0.0000015
 7,0.00000046\\\@


 WE THE UNWILLING
 LED BY THE UNQUALIFIED
 HAVE BEEN DOING THE UNBELIEVABLE SO LONG WITH SO LITTLE
 THAT WE NOW ATTEMPT THE IMPOSSIBLE WITH NOTHING.

                                    -- ANONYMOUS
 Job cpu time:       0 days 22 hours  8 minutes  0.3 seconds.
 File lengths (MBytes):  RWF=   5264 Int=      0 D2E=      0 Chk=     42 Scr=      1
 Normal termination of Gaussian 09 at Fri May  5 01:56:03 2023.
