 Entering Gaussian System, Link 0=g09
 Input=AF22-helio.com
 Output=AF22-helio.log
 Initial command:
 /home/scr/programs/g09/l1.exe "/home/scr/guest2/Gau-22366.inp" -scrdir="/home/scr/guest2/"
 Entering Link 1 = /home/scr/programs/g09/l1.exe PID=     22367.
  
 Copyright (c) 1988,1990,1992,1993,1995,1998,2003,2009,2013,
            Gaussian, Inc.  All Rights Reserved.
  
 This is part of the Gaussian(R) 09 program.  It is based on
 the Gaussian(R) 03 system (copyright 2003, Gaussian, Inc.),
 the Gaussian(R) 98 system (copyright 1998, Gaussian, Inc.),
 the Gaussian(R) 94 system (copyright 1995, Gaussian, Inc.),
 the Gaussian 92(TM) system (copyright 1992, Gaussian, Inc.),
 the Gaussian 90(TM) system (copyright 1990, Gaussian, Inc.),
 the Gaussian 88(TM) system (copyright 1988, Gaussian, Inc.),
 the Gaussian 86(TM) system (copyright 1986, Carnegie Mellon
 University), and the Gaussian 82(TM) system (copyright 1983,
 Carnegie Mellon University). Gaussian is a federally registered
 trademark of Gaussian, Inc.
  
 This software contains proprietary and confidential information,
 including trade secrets, belonging to Gaussian, Inc.
  
 This software is provided under written license and may be
 used, copied, transmitted, or stored only in accord with that
 written license.
  
 The following legend is applicable only to US Government
 contracts under FAR:
  
                    RESTRICTED RIGHTS LEGEND
  
 Use, reproduction and disclosure by the US Government is
 subject to restrictions as set forth in subparagraphs (a)
 and (c) of the Commercial Computer Software - Restricted
 Rights clause in FAR 52.227-19.
  
 Gaussian, Inc.
 340 Quinnipiac St., Bldg. 40, Wallingford CT 06492
  
  
 ---------------------------------------------------------------
 Warning -- This program may not be used in any manner that
 competes with the business of Gaussian, Inc. or will provide
 assistance to any competitor of Gaussian, Inc.  The licensee
 of this program is prohibited from giving any competitor of
 Gaussian, Inc. access to this program.  By using this program,
 the user acknowledges that Gaussian, Inc. is engaged in the
 business of creating and licensing software in the field of
 computational chemistry and represents and warrants to the
 licensee that it is not a competitor of Gaussian, Inc. and that
 it will not use this program in any manner prohibited above.
 ---------------------------------------------------------------
  

 Cite this work as:
 Gaussian 09, Revision D.01,
 M. J. Frisch, G. W. Trucks, H. B. Schlegel, G. E. Scuseria, 
 M. A. Robb, J. R. Cheeseman, G. Scalmani, V. Barone, B. Mennucci, 
 G. A. Petersson, H. Nakatsuji, M. Caricato, X. Li, H. P. Hratchian, 
 A. F. Izmaylov, J. Bloino, G. Zheng, J. L. Sonnenberg, M. Hada, 
 M. Ehara, K. Toyota, R. Fukuda, J. Hasegawa, M. Ishida, T. Nakajima, 
 Y. Honda, O. Kitao, H. Nakai, T. Vreven, J. A. Montgomery, Jr., 
 J. E. Peralta, F. Ogliaro, M. Bearpark, J. J. Heyd, E. Brothers, 
 K. N. Kudin, V. N. Staroverov, T. Keith, R. Kobayashi, J. Normand, 
 K. Raghavachari, A. Rendell, J. C. Burant, S. S. Iyengar, J. Tomasi, 
 M. Cossi, N. Rega, J. M. Millam, M. Klene, J. E. Knox, J. B. Cross, 
 V. Bakken, C. Adamo, J. Jaramillo, R. Gomperts, R. E. Stratmann, 
 O. Yazyev, A. J. Austin, R. Cammi, C. Pomelli, J. W. Ochterski, 
 R. L. Martin, K. Morokuma, V. G. Zakrzewski, G. A. Voth, 
 P. Salvador, J. J. Dannenberg, S. Dapprich, A. D. Daniels, 
 O. Farkas, J. B. Foresman, J. V. Ortiz, J. Cioslowski, 
 and D. J. Fox, Gaussian, Inc., Wallingford CT, 2013.
 
 ******************************************
 Gaussian 09:  EM64L-G09RevD.01 24-Apr-2013
                 2-May-2023 
 ******************************************
 %mem=30000MB
 %nprocshared=8
 Will use up to    8 processors via shared memory.
 ----------------------------------------
 # opt freq=noraman b3lyp/gen pseudo=read
 ----------------------------------------
 1/14=-1,18=20,19=15,26=3,38=1/1,3;
 2/9=110,12=2,17=6,18=5,40=1/2;
 3/5=7,11=2,16=1,17=8,25=1,30=1,71=1,74=-5/1,2,3;
 4//1;
 5/5=2,38=5/2;
 6/7=2,8=2,9=2,10=2,28=1/1;
 7//1,2,3,16;
 1/14=-1,18=20,19=15,26=3/3(2);
 2/9=110/2;
 99//99;
 2/9=110/2;
 3/5=7,6=1,11=2,16=1,17=8,25=1,30=1,71=1,74=-5,82=7/1,2,3;
 4/5=5,16=3,69=1/1;
 5/5=2,38=5/2;
 7//1,2,3,16;
 1/14=-1,18=20,19=15,26=3/3(-5);
 2/9=110/2;
 6/7=2,8=2,9=2,10=2,19=2,28=1/1;
 99/9=1/99;
 --
 af
 --
 Symbolic Z-matrix:
 Charge =  0 Multiplicity = 1
 Au                    0.18442  -0.52729  -0.15576 
 S                    -1.9162   -1.55468  -0.30141 
 P                     2.30473   0.35068  -0.05273 
 C                     2.74708   1.0059    1.59669 
 C                     2.68048  -0.03886   2.7068 
 H                     2.0467    1.82344   1.7985 
 H                     3.74702   1.45032   1.52915 
 H                     2.89412   0.42608   3.67393 
 H                     1.68657  -0.49509   2.76172 
 H                     3.41174  -0.83914   2.5554 
 C                     3.56549  -0.90732  -0.47648 
 C                     5.02356  -0.46216  -0.41346 
 H                     3.30403  -1.25415  -1.4828 
 H                     3.38548  -1.75576   0.19285 
 H                     5.67456  -1.29591  -0.69453 
 H                     5.22866   0.36327  -1.10125 
 H                     5.31102  -0.14628   0.59388 
 C                     2.57791   1.74075  -1.21037 
 C                     1.54765   2.85923  -1.07848 
 H                     2.54769   1.30742  -2.21662 
 H                     3.59205   2.12403  -1.05055 
 H                     1.73999   3.63567  -1.82521 
 H                     0.53227   2.48079  -1.23531 
 H                     1.58494   3.33302  -0.09279 
 C                    -3.15246  -0.34642  -0.02895 
 C                    -2.90724   1.00401   0.25703 
 C                    -3.97847   1.86447   0.45471 
 H                    -1.89041   1.3785    0.32381 
 C                    -5.49386   0.2105    0.12034 
 H                    -3.78679   2.91334   0.67672 
 H                    -6.53908  -0.09087   0.06915 
 C                    -4.50053  -0.73346  -0.09398 
 H                    -4.76965  -1.76273  -0.31087 
 N                    -5.26274   1.49926   0.39284 
 

 GradGradGradGradGradGradGradGradGradGradGradGradGradGradGradGradGradGrad
 Berny optimization.
 Initialization pass.
                           ----------------------------
                           !    Initial Parameters    !
                           ! (Angstroms and Degrees)  !
 --------------------------                            --------------------------
 ! Name  Definition              Value          Derivative Info.                !
 --------------------------------------------------------------------------------
 ! R1    R(1,2)                  2.3429         estimate D2E/DX2                !
 ! R2    R(1,3)                  2.2972         estimate D2E/DX2                !
 ! R3    R(2,25)                 1.75           estimate D2E/DX2                !
 ! R4    R(3,4)                  1.8291         estimate D2E/DX2                !
 ! R5    R(3,11)                 1.8308         estimate D2E/DX2                !
 ! R6    R(3,18)                 1.8295         estimate D2E/DX2                !
 ! R7    R(4,5)                  1.5259         estimate D2E/DX2                !
 ! R8    R(4,6)                  1.0953         estimate D2E/DX2                !
 ! R9    R(4,7)                  1.0963         estimate D2E/DX2                !
 ! R10   R(5,8)                  1.0941         estimate D2E/DX2                !
 ! R11   R(5,9)                  1.095          estimate D2E/DX2                !
 ! R12   R(5,10)                 1.0946         estimate D2E/DX2                !
 ! R13   R(11,12)                1.5258         estimate D2E/DX2                !
 ! R14   R(11,13)                1.0961         estimate D2E/DX2                !
 ! R15   R(11,14)                1.0956         estimate D2E/DX2                !
 ! R16   R(12,15)                1.0945         estimate D2E/DX2                !
 ! R17   R(12,16)                1.0938         estimate D2E/DX2                !
 ! R18   R(12,17)                1.0941         estimate D2E/DX2                !
 ! R19   R(18,19)                1.5264         estimate D2E/DX2                !
 ! R20   R(18,20)                1.096          estimate D2E/DX2                !
 ! R21   R(18,21)                1.0959         estimate D2E/DX2                !
 ! R22   R(19,22)                1.0943         estimate D2E/DX2                !
 ! R23   R(19,23)                1.0949         estimate D2E/DX2                !
 ! R24   R(19,24)                1.0943         estimate D2E/DX2                !
 ! R25   R(25,26)                1.402          estimate D2E/DX2                !
 ! R26   R(25,32)                1.404          estimate D2E/DX2                !
 ! R27   R(26,27)                1.3882         estimate D2E/DX2                !
 ! R28   R(26,28)                1.0857         estimate D2E/DX2                !
 ! R29   R(27,30)                1.0891         estimate D2E/DX2                !
 ! R30   R(27,34)                1.3366         estimate D2E/DX2                !
 ! R31   R(29,31)                1.089          estimate D2E/DX2                !
 ! R32   R(29,32)                1.387          estimate D2E/DX2                !
 ! R33   R(29,34)                1.3374         estimate D2E/DX2                !
 ! R34   R(32,33)                1.0858         estimate D2E/DX2                !
 ! A1    A(1,2,25)             108.7194         estimate D2E/DX2                !
 ! A2    A(1,3,4)              113.6138         estimate D2E/DX2                !
 ! A3    A(1,3,11)             111.2616         estimate D2E/DX2                !
 ! A4    A(1,3,18)             113.5676         estimate D2E/DX2                !
 ! A5    A(4,3,11)             106.7583         estimate D2E/DX2                !
 ! A6    A(4,3,18)             105.2075         estimate D2E/DX2                !
 ! A7    A(11,3,18)            105.8317         estimate D2E/DX2                !
 ! A8    A(3,4,5)              113.5925         estimate D2E/DX2                !
 ! A9    A(3,4,6)              106.1946         estimate D2E/DX2                !
 ! A10   A(3,4,7)              108.0735         estimate D2E/DX2                !
 ! A11   A(5,4,6)              110.4334         estimate D2E/DX2                !
 ! A12   A(5,4,7)              111.2339         estimate D2E/DX2                !
 ! A13   A(6,4,7)              106.9777         estimate D2E/DX2                !
 ! A14   A(4,5,8)              110.0962         estimate D2E/DX2                !
 ! A15   A(4,5,9)              111.1847         estimate D2E/DX2                !
 ! A16   A(4,5,10)             111.7658         estimate D2E/DX2                !
 ! A17   A(8,5,9)              108.056          estimate D2E/DX2                !
 ! A18   A(8,5,10)             107.6074         estimate D2E/DX2                !
 ! A19   A(9,5,10)             107.982          estimate D2E/DX2                !
 ! A20   A(3,11,12)            116.6182         estimate D2E/DX2                !
 ! A21   A(3,11,13)            105.4069         estimate D2E/DX2                !
 ! A22   A(3,11,14)            106.1163         estimate D2E/DX2                !
 ! A23   A(12,11,13)           110.9898         estimate D2E/DX2                !
 ! A24   A(12,11,14)           110.9603         estimate D2E/DX2                !
 ! A25   A(13,11,14)           106.062          estimate D2E/DX2                !
 ! A26   A(11,12,15)           109.6045         estimate D2E/DX2                !
 ! A27   A(11,12,16)           111.9234         estimate D2E/DX2                !
 ! A28   A(11,12,17)           111.9204         estimate D2E/DX2                !
 ! A29   A(15,12,16)           107.5686         estimate D2E/DX2                !
 ! A30   A(15,12,17)           107.4632         estimate D2E/DX2                !
 ! A31   A(16,12,17)           108.1667         estimate D2E/DX2                !
 ! A32   A(3,18,19)            113.66           estimate D2E/DX2                !
 ! A33   A(3,18,20)            106.0468         estimate D2E/DX2                !
 ! A34   A(3,18,21)            108.1583         estimate D2E/DX2                !
 ! A35   A(19,18,20)           110.5139         estimate D2E/DX2                !
 ! A36   A(19,18,21)           110.839          estimate D2E/DX2                !
 ! A37   A(20,18,21)           107.319          estimate D2E/DX2                !
 ! A38   A(18,19,22)           110.0194         estimate D2E/DX2                !
 ! A39   A(18,19,23)           111.1184         estimate D2E/DX2                !
 ! A40   A(18,19,24)           111.8448         estimate D2E/DX2                !
 ! A41   A(22,19,23)           108.0895         estimate D2E/DX2                !
 ! A42   A(22,19,24)           107.5462         estimate D2E/DX2                !
 ! A43   A(23,19,24)           108.0756         estimate D2E/DX2                !
 ! A44   A(2,25,26)            124.9766         estimate D2E/DX2                !
 ! A45   A(2,25,32)            118.7337         estimate D2E/DX2                !
 ! A46   A(26,25,32)           116.2896         estimate D2E/DX2                !
 ! A47   A(25,26,27)           119.415          estimate D2E/DX2                !
 ! A48   A(25,26,28)           120.5722         estimate D2E/DX2                !
 ! A49   A(27,26,28)           120.0127         estimate D2E/DX2                !
 ! A50   A(26,27,30)           119.3518         estimate D2E/DX2                !
 ! A51   A(26,27,34)           124.4375         estimate D2E/DX2                !
 ! A52   A(30,27,34)           116.2107         estimate D2E/DX2                !
 ! A53   A(31,29,32)           119.4581         estimate D2E/DX2                !
 ! A54   A(31,29,34)           116.2394         estimate D2E/DX2                !
 ! A55   A(32,29,34)           124.3025         estimate D2E/DX2                !
 ! A56   A(25,32,29)           119.5296         estimate D2E/DX2                !
 ! A57   A(25,32,33)           120.5677         estimate D2E/DX2                !
 ! A58   A(29,32,33)           119.9027         estimate D2E/DX2                !
 ! A59   A(27,34,29)           116.0258         estimate D2E/DX2                !
 ! A60   L(2,1,3,28,-1)        183.6921         estimate D2E/DX2                !
 ! A61   L(2,1,3,28,-2)        180.2681         estimate D2E/DX2                !
 ! D1    D(25,2,3,4)            64.791          estimate D2E/DX2                !
 ! D2    D(25,2,3,11)         -175.4107         estimate D2E/DX2                !
 ! D3    D(25,2,3,18)          -56.8616         estimate D2E/DX2                !
 ! D4    D(1,2,25,26)           -1.265          estimate D2E/DX2                !
 ! D5    D(1,2,25,32)          178.8426         estimate D2E/DX2                !
 ! D6    D(1,3,4,5)             59.2236         estimate D2E/DX2                !
 ! D7    D(1,3,4,6)            -62.3464         estimate D2E/DX2                !
 ! D8    D(1,3,4,7)           -176.8418         estimate D2E/DX2                !
 ! D9    D(11,3,4,5)           -63.7986         estimate D2E/DX2                !
 ! D10   D(11,3,4,6)           174.6314         estimate D2E/DX2                !
 ! D11   D(11,3,4,7)            60.1359         estimate D2E/DX2                !
 ! D12   D(18,3,4,5)          -175.9532         estimate D2E/DX2                !
 ! D13   D(18,3,4,6)            62.4768         estimate D2E/DX2                !
 ! D14   D(18,3,4,7)           -52.0187         estimate D2E/DX2                !
 ! D15   D(1,3,11,12)         -178.5686         estimate D2E/DX2                !
 ! D16   D(1,3,11,13)           57.8095         estimate D2E/DX2                !
 ! D17   D(1,3,11,14)          -54.4224         estimate D2E/DX2                !
 ! D18   D(4,3,11,12)          -54.0925         estimate D2E/DX2                !
 ! D19   D(4,3,11,13)         -177.7144         estimate D2E/DX2                !
 ! D20   D(4,3,11,14)           70.0537         estimate D2E/DX2                !
 ! D21   D(18,3,11,12)          57.6318         estimate D2E/DX2                !
 ! D22   D(18,3,11,13)         -65.9901         estimate D2E/DX2                !
 ! D23   D(18,3,11,14)        -178.222          estimate D2E/DX2                !
 ! D24   D(1,3,18,19)           53.4882         estimate D2E/DX2                !
 ! D25   D(1,3,18,20)          -68.1213         estimate D2E/DX2                !
 ! D26   D(1,3,18,21)          177.0232         estimate D2E/DX2                !
 ! D27   D(4,3,18,19)          -71.3639         estimate D2E/DX2                !
 ! D28   D(4,3,18,20)          167.0266         estimate D2E/DX2                !
 ! D29   D(4,3,18,21)           52.1711         estimate D2E/DX2                !
 ! D30   D(11,3,18,19)         175.8269         estimate D2E/DX2                !
 ! D31   D(11,3,18,20)          54.2174         estimate D2E/DX2                !
 ! D32   D(11,3,18,21)         -60.6381         estimate D2E/DX2                !
 ! D33   D(3,4,5,8)           -176.497          estimate D2E/DX2                !
 ! D34   D(3,4,5,9)            -56.777          estimate D2E/DX2                !
 ! D35   D(3,4,5,10)            63.9706         estimate D2E/DX2                !
 ! D36   D(6,4,5,8)            -57.3217         estimate D2E/DX2                !
 ! D37   D(6,4,5,9)             62.3982         estimate D2E/DX2                !
 ! D38   D(6,4,5,10)          -176.8541         estimate D2E/DX2                !
 ! D39   D(7,4,5,8)             61.3024         estimate D2E/DX2                !
 ! D40   D(7,4,5,9)           -178.9776         estimate D2E/DX2                !
 ! D41   D(7,4,5,10)           -58.23           estimate D2E/DX2                !
 ! D42   D(3,11,12,15)        -179.5388         estimate D2E/DX2                !
 ! D43   D(3,11,12,16)         -60.2804         estimate D2E/DX2                !
 ! D44   D(3,11,12,17)          61.3365         estimate D2E/DX2                !
 ! D45   D(13,11,12,15)        -58.8375         estimate D2E/DX2                !
 ! D46   D(13,11,12,16)         60.4209         estimate D2E/DX2                !
 ! D47   D(13,11,12,17)       -177.9622         estimate D2E/DX2                !
 ! D48   D(14,11,12,15)         58.8281         estimate D2E/DX2                !
 ! D49   D(14,11,12,16)        178.0865         estimate D2E/DX2                !
 ! D50   D(14,11,12,17)        -60.2966         estimate D2E/DX2                !
 ! D51   D(3,18,19,22)        -177.4891         estimate D2E/DX2                !
 ! D52   D(3,18,19,23)         -57.82           estimate D2E/DX2                !
 ! D53   D(3,18,19,24)          63.0556         estimate D2E/DX2                !
 ! D54   D(20,18,19,22)        -58.4008         estimate D2E/DX2                !
 ! D55   D(20,18,19,23)         61.2683         estimate D2E/DX2                !
 ! D56   D(20,18,19,24)       -177.8561         estimate D2E/DX2                !
 ! D57   D(21,18,19,22)         60.4492         estimate D2E/DX2                !
 ! D58   D(21,18,19,23)       -179.8817         estimate D2E/DX2                !
 ! D59   D(21,18,19,24)        -59.0062         estimate D2E/DX2                !
 ! D60   D(2,25,26,27)        -179.9321         estimate D2E/DX2                !
 ! D61   D(2,25,26,28)           0.1029         estimate D2E/DX2                !
 ! D62   D(32,25,26,27)         -0.0373         estimate D2E/DX2                !
 ! D63   D(32,25,26,28)        179.9977         estimate D2E/DX2                !
 ! D64   D(2,25,32,29)         179.9486         estimate D2E/DX2                !
 ! D65   D(2,25,32,33)          -0.0987         estimate D2E/DX2                !
 ! D66   D(26,25,32,29)          0.0469         estimate D2E/DX2                !
 ! D67   D(26,25,32,33)        179.9997         estimate D2E/DX2                !
 ! D68   D(25,26,27,30)       -179.9944         estimate D2E/DX2                !
 ! D69   D(25,26,27,34)          0.0066         estimate D2E/DX2                !
 ! D70   D(28,26,27,30)         -0.0292         estimate D2E/DX2                !
 ! D71   D(28,26,27,34)        179.9718         estimate D2E/DX2                !
 ! D72   D(26,27,34,29)          0.0152         estimate D2E/DX2                !
 ! D73   D(30,27,34,29)       -179.9839         estimate D2E/DX2                !
 ! D74   D(31,29,32,25)        179.9712         estimate D2E/DX2                !
 ! D75   D(31,29,32,33)          0.0181         estimate D2E/DX2                !
 ! D76   D(34,29,32,25)         -0.0274         estimate D2E/DX2                !
 ! D77   D(34,29,32,33)       -179.9805         estimate D2E/DX2                !
 ! D78   D(31,29,34,27)        179.9968         estimate D2E/DX2                !
 ! D79   D(32,29,34,27)         -0.0046         estimate D2E/DX2                !
 --------------------------------------------------------------------------------
 Trust Radius=3.00D-01 FncErr=1.00D-07 GrdErr=1.00D-06
 Number of steps in this run=    184 maximum allowed number of steps=    204.
 GradGradGradGradGradGradGradGradGradGradGradGradGradGradGradGradGradGrad

                          Input orientation:                          
 ---------------------------------------------------------------------
 Center     Atomic      Atomic             Coordinates (Angstroms)
 Number     Number       Type             X           Y           Z
 ---------------------------------------------------------------------
      1         79           0        0.184417   -0.527289   -0.155755
      2         16           0       -1.916203   -1.554681   -0.301412
      3         15           0        2.304729    0.350676   -0.052726
      4          6           0        2.747075    1.005897    1.596691
      5          6           0        2.680482   -0.038862    2.706796
      6          1           0        2.046699    1.823444    1.798503
      7          1           0        3.747023    1.450320    1.529153
      8          1           0        2.894124    0.426075    3.673930
      9          1           0        1.686569   -0.495085    2.761715
     10          1           0        3.411737   -0.839135    2.555396
     11          6           0        3.565492   -0.907324   -0.476480
     12          6           0        5.023565   -0.462161   -0.413455
     13          1           0        3.304030   -1.254149   -1.482801
     14          1           0        3.385483   -1.755762    0.192846
     15          1           0        5.674558   -1.295907   -0.694526
     16          1           0        5.228656    0.363269   -1.101245
     17          1           0        5.311019   -0.146276    0.593878
     18          6           0        2.577906    1.740749   -1.210368
     19          6           0        1.547651    2.859230   -1.078484
     20          1           0        2.547689    1.307420   -2.216621
     21          1           0        3.592047    2.124029   -1.050546
     22          1           0        1.739985    3.635675   -1.825214
     23          1           0        0.532271    2.480788   -1.235310
     24          1           0        1.584940    3.333019   -0.092790
     25          6           0       -3.152464   -0.346420   -0.028947
     26          6           0       -2.907243    1.004006    0.257033
     27          6           0       -3.978469    1.864469    0.454709
     28          1           0       -1.890408    1.378496    0.323808
     29          6           0       -5.493862    0.210499    0.120339
     30          1           0       -3.786792    2.913339    0.676718
     31          1           0       -6.539083   -0.090871    0.069153
     32          6           0       -4.500526   -0.733455   -0.093982
     33          1           0       -4.769646   -1.762728   -0.310868
     34          7           0       -5.262744    1.499263    0.392835
 ---------------------------------------------------------------------
                    Distance matrix (angstroms):
                    1          2          3          4          5
     1  Au   0.000000
     2  S    2.342937   0.000000
     3  P    2.297207   4.637725   0.000000
     4  C    3.462505   5.648497   1.829087   0.000000
     5  C    3.829243   5.698819   2.812097   1.525873   0.000000
     6  H    3.579548   5.614799   2.379637   1.095280   2.166763
     7  H    4.409310   6.667318   2.406610   1.096344   2.177617
     8  H    4.787265   6.547212   3.773730   2.161652   1.094147
     9  H    3.281635   4.846180   3.003084   2.175983   1.094997
    10  H    4.226486   6.087717   3.073014   2.182896   1.094574
    11  C    3.417449   5.522563   1.830753   2.937390   3.416243
    12  C    4.846442   7.026132   2.860577   3.373172   3.924944
    13  H    3.467184   5.360675   2.370481   3.860217   4.406638
    14  H    3.446374   5.328471   2.380213   3.163085   3.124855
    15  H    5.569802   7.605337   3.805114   4.372429   4.702515
    16  H    5.208780   7.440919   3.106268   3.721569   4.599573
    17  H    5.195110   7.417404   3.114938   2.984451   3.375750
    18  C    3.461935   5.646510   1.829498   2.906580   4.303686
    19  C    3.765415   5.664339   2.813928   3.468432   4.900060
    20  H    3.632958   5.637906   2.378409   3.830407   5.105893
    21  H    4.409317   6.665953   2.407823   2.995340   4.430199
    22  H    4.747331   6.529125   3.775165   4.431636   5.909811
    23  H    3.214805   4.811673   3.012887   3.885986   5.148169
    24  H    4.106995   6.015907   3.068236   3.101677   4.517463
    25  C    3.344184   1.749992   5.501587   6.267058   6.449972
    26  C    3.474711   2.800161   5.261886   5.810852   6.189635
    27  C    4.839710   4.063896   6.482873   6.875624   7.282595
    28  H    2.857778   2.999182   4.335593   4.823413   5.346080
    29  C    5.732662   4.011655   7.801770   8.409834   8.577403
    30  H    5.319909   4.941563   6.648756   6.868486   7.393398
    31  H    6.741402   4.863237   8.855666   9.474651   9.589590
    32  C    4.689884   2.719589   6.891193   7.642738   7.739102
    33  H    5.108142   2.861033   7.387821   8.234389   8.220853
    34  N    5.837759   4.583436   7.667100   8.114794   8.415170
                    6          7          8          9         10
     6  H    0.000000
     7  H    1.761497   0.000000
     8  H    2.487568   2.525190   0.000000
     9  H    2.536345   3.090191   1.771683   0.000000
    10  H    3.086348   2.531244   1.766295   1.771198   0.000000
    11  C    3.865149   3.100645   4.410736   3.766457   3.036538
    12  C    4.356430   3.010128   4.693634   4.606336   3.399143
    13  H    4.671126   4.072132   5.439030   4.605244   4.060896
    14  H    4.145020   3.492190   4.137607   3.327868   2.534272
    15  H    5.395082   4.025159   5.457054   5.337694   3.986351
    16  H    4.545932   3.208724   5.315664   5.310896   4.256524
    17  H    3.998338   2.422796   3.956727   4.237667   2.816892
    18  C    3.056522   2.992684   5.068010   4.644446   4.640264
    19  C    3.098218   3.690804   5.506239   5.100770   5.509792
    20  H    4.079031   3.935689   5.966186   5.364176   5.303435
    21  H    3.255078   2.670721   5.068611   5.002393   4.670725
    22  H    4.063198   4.478365   6.471024   6.173002   6.481391
    23  H    3.453927   4.363342   5.822442   5.115118   5.803677
    24  H    2.463540   3.293912   4.934822   4.776286   5.268486
    25  C    5.922768   7.297868   7.132270   5.588035   7.071798
    26  C    5.252537   6.789458   6.757592   5.442776   6.972026
    27  C    6.173339   7.810837   7.724306   6.556098   8.144784
    28  H    4.227708   5.765296   5.917953   4.716827   6.165275
    29  C    7.891634   9.429521   9.112233   7.683313   9.291982
    30  H    6.039527   7.721751   7.733330   6.776596   8.332425
    31  H    8.964982  10.502897  10.111728   8.664562  10.283974
    32  C    7.279106   8.684786   8.379888   6.818502   8.344716
    33  H    7.985777   9.286711   8.910827   7.261570   8.718000
    34  N    7.450433   9.081273   8.857303   7.608020   9.240747
                   11         12         13         14         15
    11  C    0.000000
    12  C    1.525818   0.000000
    13  H    1.096053   2.174292   0.000000
    14  H    1.095558   2.173549   1.751012   0.000000
    15  H    2.155621   1.094498   2.498504   2.497751   0.000000
    16  H    2.184228   1.093825   2.542796   3.092289   1.765535
    17  H    2.184428   1.094136   3.093216   2.541449   1.764595
    18  C    2.919967   3.386611   3.093685   3.853152   4.367680
    19  C    4.315208   4.853440   4.490905   5.127578   5.868897
    20  H    2.994846   3.537342   2.769870   3.986291   4.344122
    21  H    3.085346   3.023823   3.417877   4.079396   4.019896
    22  H    5.078425   5.437575   5.145276   5.987305   6.409354
    23  H    4.610375   5.432137   4.657645   5.303660   6.403045
    24  H    4.695776   5.131312   5.092103   5.405482   6.205966
    25  C    6.756170   8.185884   6.680118   6.691800   8.902856
    26  C    6.788779   8.093016   6.834193   6.871597   8.935456
    27  C    8.090816   9.338283   8.155643   8.209899  10.222018
    28  H    5.969278   7.192677   6.097282   6.138058   8.088148
    29  C    9.147547  10.552425   9.061907   9.094735  11.298976
    30  H    8.365609   9.497624   8.503601   8.571824  10.445822
    31  H   10.152179  11.578670  10.032380  10.064004  12.296680
    32  C    8.076954   9.533309   7.944245   7.957168  10.208298
    33  H    8.380553   9.879726   8.174125   8.170673  10.461669
    34  N    9.191579  10.502640   9.191785   9.242674  11.341072
                   16         17         18         19         20
    16  H    0.000000
    17  H    1.771966   0.000000
    18  C    2.989287   3.779692   0.000000
    19  C    4.447487   5.098313   1.526374   0.000000
    20  H    3.053370   4.200968   1.096007   2.168766   0.000000
    21  H    2.404441   3.288355   1.095869   2.172753   1.765578
    22  H    4.837726   5.736501   2.161225   1.094287   2.495267
    23  H    5.153435   5.751854   2.175523   1.094901   2.530153
    24  H    4.807605   5.143994   2.184098   1.094285   3.088785
    25  C    8.479189   8.488729   6.212018   5.785223   6.325571
    26  C    8.273350   8.305206   5.725637   5.007149   5.997275
    27  C    9.457576   9.505633   6.765637   5.820501   7.073687
    28  H    7.330930   7.366031   4.738223   3.997405   5.114248
    29  C   10.792961  10.821136   8.322613   7.618127   8.445778
    30  H    9.536368   9.598868   6.741323   5.616043   7.146750
    31  H   11.834515  11.861843   9.386772   8.684206   9.473616
    32  C    9.842478   9.853139   7.581042   7.103314   7.638593
    33  H   10.252346  10.249453   8.189626   7.865111   8.160949
    34  N   10.657966  10.702929   8.006520   7.098998   8.237046
                   21         22         23         24         25
    21  H    0.000000
    22  H    2.513030   0.000000
    23  H    3.086040   1.772096   0.000000
    24  H    2.531291   1.765484   1.771937   0.000000
    25  C    7.255013   6.558941   4.798509   5.998779   0.000000
    26  C    6.723465   5.732204   4.029669   5.072118   1.401987
    27  C    7.723074   6.405930   4.856211   5.779958   2.409199
    28  H    5.701051   4.784653   3.084683   4.008960   2.166231
    29  C    9.358756   8.236841   6.580750   7.739832   2.411346
    30  H    7.619299   6.109558   4.743127   5.442773   3.395050
    31  H   10.430690   9.274629   7.636694   8.817539   3.397663
    32  C    8.635390   7.812198   6.079723   7.319092   1.404029
    33  H    9.250509   8.591350   6.853637   8.148310   2.168106
    34  N    8.993387   7.649981   6.098889   7.105580   2.835089
                   26         27         28         29         30
    26  C    0.000000
    27  C    1.388163   0.000000
    28  H    1.085659   2.147860   0.000000
    29  C    2.709047   2.268003   3.793481   0.000000
    30  H    2.143664   1.089108   2.465068   3.244840   0.000000
    31  H    3.797936   3.244804   4.882015   1.089005   4.119408
    32  C    2.383387   2.706070   3.383430   1.386975   3.795063
    33  H    3.383175   3.790597   4.308145   2.145706   4.879235
    34  N    2.410831   1.336625   3.375204   1.337379   2.063646
                   31         32         33         34
    31  H    0.000000
    32  C    2.143652   0.000000
    33  H    2.463824   1.085757   0.000000
    34  N    2.064543   2.408941   3.373267   0.000000
 Stoichiometry    C11H19AuNPS
 Framework group  C1[X(C11H19AuNPS)]
 Deg. of freedom    96
 Full point group                 C1      NOp   1
 Largest Abelian subgroup         C1      NOp   1
 Largest concise Abelian subgroup C1      NOp   1
                         Standard orientation:                         
 ---------------------------------------------------------------------
 Center     Atomic      Atomic             Coordinates (Angstroms)
 Number     Number       Type             X           Y           Z
 ---------------------------------------------------------------------
      1         79           0        0.184417   -0.527289   -0.155755
      2         16           0       -1.916203   -1.554681   -0.301412
      3         15           0        2.304729    0.350676   -0.052726
      4          6           0        2.747075    1.005897    1.596691
      5          6           0        2.680482   -0.038862    2.706796
      6          1           0        2.046699    1.823444    1.798503
      7          1           0        3.747023    1.450320    1.529153
      8          1           0        2.894124    0.426075    3.673930
      9          1           0        1.686569   -0.495085    2.761715
     10          1           0        3.411737   -0.839135    2.555396
     11          6           0        3.565492   -0.907324   -0.476480
     12          6           0        5.023565   -0.462161   -0.413455
     13          1           0        3.304030   -1.254149   -1.482801
     14          1           0        3.385483   -1.755762    0.192846
     15          1           0        5.674558   -1.295907   -0.694526
     16          1           0        5.228656    0.363269   -1.101245
     17          1           0        5.311019   -0.146276    0.593878
     18          6           0        2.577906    1.740749   -1.210368
     19          6           0        1.547651    2.859230   -1.078484
     20          1           0        2.547689    1.307420   -2.216621
     21          1           0        3.592047    2.124029   -1.050546
     22          1           0        1.739985    3.635675   -1.825214
     23          1           0        0.532271    2.480788   -1.235310
     24          1           0        1.584940    3.333019   -0.092790
     25          6           0       -3.152464   -0.346420   -0.028947
     26          6           0       -2.907243    1.004006    0.257033
     27          6           0       -3.978469    1.864469    0.454709
     28          1           0       -1.890408    1.378496    0.323808
     29          6           0       -5.493862    0.210499    0.120339
     30          1           0       -3.786792    2.913339    0.676718
     31          1           0       -6.539083   -0.090871    0.069153
     32          6           0       -4.500526   -0.733455   -0.093982
     33          1           0       -4.769646   -1.762728   -0.310868
     34          7           0       -5.262744    1.499263    0.392835
 ---------------------------------------------------------------------
 Rotational constants (GHZ):      0.7575640      0.1735990      0.1607432
 General basis read from cards:  (5D, 7F)
 ======================================================================================================
                                       Pseudopotential Parameters
 ======================================================================================================
  Center     Atomic      Valence      Angular      Power
  Number     Number     Electrons     Momentum     of R      Exponent        Coefficient   SO-Coeffient
 ======================================================================================================
    1         79           19
                                      G and up 
                                                     1      622.6287956      -60.00000000    0.00000000
                                                     2      136.2843607     -555.52923120    0.00000000
                                                     2       33.1549781     -168.00197850    0.00000000
                                                     2        9.9894895      -63.03998750    0.00000000
                                                     2        3.0481312       -4.25166810    0.00000000
                                      S - G
                                                     0      194.7374304        3.00000000    0.00000000
                                                     1      351.5327447       38.60208800    0.00000000
                                                     2      122.3270402      864.83707270    0.00000000
                                                     2       32.0914617      374.99355200    0.00000000
                                                     2        5.2451812      289.79101000    0.00000000
                                                     2        4.4916223     -152.45327730    0.00000000
                                      P - G
                                                     0      420.6158801        2.00000000    0.00000000
                                                     1      109.4417815       73.88856250    0.00000000
                                                     2       34.1714280      326.67298720    0.00000000
                                                     2        5.9879750      126.58145910    0.00000000
                                      D - G
                                                     0      219.2666158        3.00000000    0.00000000
                                                     1      122.7297786       55.67931490    0.00000000
                                                     2       63.1063369      449.19873350    0.00000000
                                                     2       18.3684520      215.02690910    0.00000000
                                                     2        4.4972844       64.08409950    0.00000000
                                      F - G
                                                     0      108.5506037        4.00000000    0.00000000
                                                     1       56.4795527       51.80653350    0.00000000
                                                     2       29.2069159      231.21831130    0.00000000
                                                     2        9.5440543      119.00473860    0.00000000
                                                     2        2.8965118       15.34241880    0.00000000
    2         16
                                   No pseudopotential on this center.
    3         15
                                   No pseudopotential on this center.
    4          6
                                   No pseudopotential on this center.
    5          6
                                   No pseudopotential on this center.
    6          1
                                   No pseudopotential on this center.
    7          1
                                   No pseudopotential on this center.
    8          1
                                   No pseudopotential on this center.
    9          1
                                   No pseudopotential on this center.
   10          1
                                   No pseudopotential on this center.
   11          6
                                   No pseudopotential on this center.
   12          6
                                   No pseudopotential on this center.
   13          1
                                   No pseudopotential on this center.
   14          1
                                   No pseudopotential on this center.
   15          1
                                   No pseudopotential on this center.
   16          1
                                   No pseudopotential on this center.
   17          1
                                   No pseudopotential on this center.
   18          6
                                   No pseudopotential on this center.
   19          6
                                   No pseudopotential on this center.
   20          1
                                   No pseudopotential on this center.
   21          1
                                   No pseudopotential on this center.
   22          1
                                   No pseudopotential on this center.
   23          1
                                   No pseudopotential on this center.
   24          1
                                   No pseudopotential on this center.
   25          6
                                   No pseudopotential on this center.
   26          6
                                   No pseudopotential on this center.
   27          6
                                   No pseudopotential on this center.
   28          1
                                   No pseudopotential on this center.
   29          6
                                   No pseudopotential on this center.
   30          1
                                   No pseudopotential on this center.
   31          1
                                   No pseudopotential on this center.
   32          6
                                   No pseudopotential on this center.
   33          1
                                   No pseudopotential on this center.
   34          7
                                   No pseudopotential on this center.
 ======================================================================================================
 There are   304 symmetry adapted cartesian basis functions of A   symmetry.
 There are   284 symmetry adapted basis functions of A   symmetry.
   284 basis functions,   564 primitive gaussians,   304 cartesian basis functions
    71 alpha electrons       71 beta electrons
       nuclear repulsion energy      1371.4514978751 Hartrees.
 NAtoms=   34 NActive=   34 NUniq=   34 SFac= 1.00D+00 NAtFMM=   60 NAOKFM=F Big=F
 Integral buffers will be    131072 words long.
 Raffenetti 2 integral format.
 Two-electron integral symmetry is turned on.
 One-electron integrals computed using PRISM.
   1 Symmetry operations used in ECPInt.
 ECPInt:  NShTT=    6105 NPrTT=   33235 LenC2=    5317 LenP2D=   17675.
 LDataN:  DoStor=T MaxTD1= 7 Len=  274
 NBasis=   284 RedAO= T EigKep=  9.63D-04  NBF=   284
 NBsUse=   284 1.00D-06 EigRej= -1.00D+00 NBFU=   284
 Defaulting to unpruned grid for atomic number  79.
 ExpMin= 2.79D-02 ExpMax= 2.19D+04 ExpMxC= 3.30D+03 IAcc=3 IRadAn=         5 AccDes= 0.00D+00
 Harris functional with IExCor=  402 and IRadAn=       5 diagonalized for initial guess.
 HarFok:  IExCor=  402 AccDes= 0.00D+00 IRadAn=         5 IDoV= 1 UseB2=F ITyADJ=14
 ICtDFT=  3500011 ScaDFX=  1.000000  1.000000  1.000000  1.000000
 Defaulting to unpruned grid for atomic number  79.
 Defaulting to unpruned grid for atomic number  79.
 Defaulting to unpruned grid for atomic number  79.
 Defaulting to unpruned grid for atomic number  79.
 Defaulting to unpruned grid for atomic number  79.
 Defaulting to unpruned grid for atomic number  79.
 Defaulting to unpruned grid for atomic number  79.
 Defaulting to unpruned grid for atomic number  79.
 FoFCou: FMM=F IPFlag=           0 FMFlag=      100000 FMFlg1=           0
         NFxFlg=           0 DoJE=T BraDBF=F KetDBF=T FulRan=T
         wScrn=  0.000000 ICntrl=     500 IOpCl=  0 I1Cent=   200000004 NGrid=           0
         NMat0=    1 NMatS0=      1 NMatT0=    0 NMatD0=    1 NMtDS0=    0 NMtDT0=    0
 Petite list used in FoFCou.
 Keep R1 ints in memory in canonical form, NReq=833417361.
 Requested convergence on RMS density matrix=1.00D-08 within 128 cycles.
 Requested convergence on MAX density matrix=1.00D-06.
 Requested convergence on             energy=1.00D-06.
 No special actions if energy rises.
 Defaulting to unpruned grid for atomic number  79.
 Defaulting to unpruned grid for atomic number  79.
 Defaulting to unpruned grid for atomic number  79.
 Defaulting to unpruned grid for atomic number  79.
 Defaulting to unpruned grid for atomic number  79.
 Defaulting to unpruned grid for atomic number  79.
 Defaulting to unpruned grid for atomic number  79.
 Defaulting to unpruned grid for atomic number  79.
 EnCoef did     2 forward-backward iterations
 SCF Done:  E(RB3LYP) =  -1360.45513426     A.U. after   15 cycles
            NFock= 15  Conv=0.79D-08     -V/T= 2.0768

 **********************************************************************

            Population analysis using the SCF density.

 **********************************************************************

 Orbital symmetries:
       Occupied  (A) (A) (A) (A) (A) (A) (A) (A) (A) (A) (A) (A)
                 (A) (A) (A) (A) (A) (A) (A) (A) (A) (A) (A) (A)
                 (A) (A) (A) (A) (A) (A) (A) (A) (A) (A) (A) (A)
                 (A) (A) (A) (A) (A) (A) (A) (A) (A) (A) (A) (A)
                 (A) (A) (A) (A) (A) (A) (A) (A) (A) (A) (A) (A)
                 (A) (A) (A) (A) (A) (A) (A) (A) (A) (A) (A)
       Virtual   (A) (A) (A) (A) (A) (A) (A) (A) (A) (A) (A) (A)
                 (A) (A) (A) (A) (A) (A) (A) (A) (A) (A) (A) (A)
                 (A) (A) (A) (A) (A) (A) (A) (A) (A) (A) (A) (A)
                 (A) (A) (A) (A) (A) (A) (A) (A) (A) (A) (A) (A)
                 (A) (A) (A) (A) (A) (A) (A) (A) (A) (A) (A) (A)
                 (A) (A) (A) (A) (A) (A) (A) (A) (A) (A) (A) (A)
                 (A) (A) (A) (A) (A) (A) (A) (A) (A) (A) (A) (A)
                 (A) (A) (A) (A) (A) (A) (A) (A) (A) (A) (A) (A)
                 (A) (A) (A) (A) (A) (A) (A) (A) (A) (A) (A) (A)
                 (A) (A) (A) (A) (A) (A) (A) (A) (A) (A) (A) (A)
                 (A) (A) (A) (A) (A) (A) (A) (A) (A) (A) (A) (A)
                 (A) (A) (A) (A) (A) (A) (A) (A) (A) (A) (A) (A)
                 (A) (A) (A) (A) (A) (A) (A) (A) (A) (A) (A) (A)
                 (A) (A) (A) (A) (A) (A) (A) (A) (A) (A) (A) (A)
                 (A) (A) (A) (A) (A) (A) (A) (A) (A) (A) (A) (A)
                 (A) (A) (A) (A) (A) (A) (A) (A) (A) (A) (A) (A)
                 (A) (A) (A) (A) (A) (A) (A) (A) (A) (A) (A) (A)
                 (A) (A) (A) (A) (A) (A) (A) (A) (A)
 The electronic state is 1-A.
 Alpha  occ. eigenvalues --  -88.81758 -77.12473 -14.29401 -10.21997 -10.21923
 Alpha  occ. eigenvalues --  -10.21870 -10.20739 -10.20250 -10.20034 -10.20023
 Alpha  occ. eigenvalues --  -10.19017 -10.18882 -10.16396 -10.16232  -7.89434
 Alpha  occ. eigenvalues --   -6.60593  -5.85815  -5.85333  -5.85043  -4.76733
 Alpha  occ. eigenvalues --   -4.76719  -4.76499  -4.17031  -2.31647  -2.29626
 Alpha  occ. eigenvalues --   -2.29463  -0.91164  -0.83721  -0.79536  -0.79268
 Alpha  occ. eigenvalues --   -0.79022  -0.73383  -0.70124  -0.68055  -0.65943
 Alpha  occ. eigenvalues --   -0.64953  -0.60318  -0.57694  -0.56770  -0.50360
 Alpha  occ. eigenvalues --   -0.48840  -0.48495  -0.47752  -0.46937  -0.45853
 Alpha  occ. eigenvalues --   -0.45147  -0.44377  -0.43898  -0.41721  -0.41036
 Alpha  occ. eigenvalues --   -0.40716  -0.40205  -0.39657  -0.39467  -0.38594
 Alpha  occ. eigenvalues --   -0.37918  -0.37325  -0.35822  -0.35533  -0.34497
 Alpha  occ. eigenvalues --   -0.33923  -0.32873  -0.30991  -0.30561  -0.30496
 Alpha  occ. eigenvalues --   -0.28305  -0.27653  -0.24284  -0.23594  -0.22648
 Alpha  occ. eigenvalues --   -0.18816
 Alpha virt. eigenvalues --   -0.02587  -0.02224   0.01316   0.01355   0.02074
 Alpha virt. eigenvalues --    0.03128   0.04719   0.04967   0.07028   0.07835
 Alpha virt. eigenvalues --    0.09603   0.09757   0.09946   0.11279   0.11296
 Alpha virt. eigenvalues --    0.12536   0.13386   0.13694   0.14382   0.14801
 Alpha virt. eigenvalues --    0.15093   0.15438   0.15878   0.16701   0.17074
 Alpha virt. eigenvalues --    0.17317   0.18300   0.18462   0.19215   0.19630
 Alpha virt. eigenvalues --    0.19972   0.20993   0.22097   0.22889   0.23266
 Alpha virt. eigenvalues --    0.25765   0.27406   0.29464   0.32377   0.34212
 Alpha virt. eigenvalues --    0.35643   0.36486   0.38734   0.38945   0.39847
 Alpha virt. eigenvalues --    0.41018   0.41648   0.42167   0.43934   0.45258
 Alpha virt. eigenvalues --    0.45998   0.47424   0.49031   0.51501   0.52043
 Alpha virt. eigenvalues --    0.54368   0.55015   0.55297   0.56059   0.56814
 Alpha virt. eigenvalues --    0.57948   0.58063   0.58567   0.60548   0.61619
 Alpha virt. eigenvalues --    0.61968   0.62441   0.62572   0.63519   0.64213
 Alpha virt. eigenvalues --    0.64705   0.65930   0.68548   0.69116   0.70204
 Alpha virt. eigenvalues --    0.70682   0.70743   0.71347   0.73536   0.76131
 Alpha virt. eigenvalues --    0.79266   0.80769   0.80967   0.81922   0.83212
 Alpha virt. eigenvalues --    0.84084   0.84283   0.84845   0.85185   0.86004
 Alpha virt. eigenvalues --    0.86215   0.86699   0.86792   0.87259   0.88111
 Alpha virt. eigenvalues --    0.88835   0.89587   0.90233   0.90814   0.92045
 Alpha virt. eigenvalues --    0.92184   0.93129   0.93846   0.94041   0.94254
 Alpha virt. eigenvalues --    0.95881   0.96589   0.97895   0.98419   0.99697
 Alpha virt. eigenvalues --    1.00113   1.00635   1.01230   1.02289   1.03176
 Alpha virt. eigenvalues --    1.03791   1.06325   1.09400   1.10261   1.13172
 Alpha virt. eigenvalues --    1.16834   1.17867   1.22387   1.25093   1.27625
 Alpha virt. eigenvalues --    1.28669   1.35427   1.37068   1.41143   1.43195
 Alpha virt. eigenvalues --    1.47223   1.49337   1.49887   1.50403   1.50546
 Alpha virt. eigenvalues --    1.52446   1.52614   1.53638   1.55481   1.56055
 Alpha virt. eigenvalues --    1.58747   1.64869   1.68166   1.72806   1.73968
 Alpha virt. eigenvalues --    1.81161   1.81628   1.83599   1.84310   1.87770
 Alpha virt. eigenvalues --    1.90016   1.90140   1.91514   1.93853   1.94121
 Alpha virt. eigenvalues --    1.95533   1.95739   1.96204   1.96972   1.98037
 Alpha virt. eigenvalues --    1.98433   1.99197   1.99573   2.00209   2.00335
 Alpha virt. eigenvalues --    2.00786   2.01871   2.02587   2.02662   2.07094
 Alpha virt. eigenvalues --    2.09019   2.10343   2.11475   2.15371   2.16034
 Alpha virt. eigenvalues --    2.16738   2.20405   2.21653   2.22141   2.23239
 Alpha virt. eigenvalues --    2.23804   2.25345   2.26395   2.26955   2.27555
 Alpha virt. eigenvalues --    2.29715   2.30371   2.30922   2.31757   2.32047
 Alpha virt. eigenvalues --    2.32419   2.32496   2.32663   2.32916   2.42100
 Alpha virt. eigenvalues --    2.55841   2.57690   2.58741   2.61291   2.62256
 Alpha virt. eigenvalues --    2.64281   2.68137   2.70448   2.71980   2.77825
 Alpha virt. eigenvalues --    2.80860   2.81654   3.09017   3.39683  15.58956
 Alpha virt. eigenvalues --   15.61301  15.69503  43.14648
          Condensed to atoms (all electrons):
               1          2          3          4          5          6
     1  Au  18.538697   0.318359   0.333674  -0.029260  -0.000439  -0.004222
     2  S    0.318359  15.658748  -0.000633   0.000003  -0.000067  -0.000020
     3  P    0.333674  -0.000633  13.591234   0.320268  -0.039001  -0.033342
     4  C   -0.029260   0.000003   0.320268   5.224737   0.364009   0.373035
     5  C   -0.000439  -0.000067  -0.039001   0.364009   5.066643  -0.027475
     6  H   -0.004222  -0.000020  -0.033342   0.373035  -0.027475   0.528182
     7  H    0.004216  -0.000001  -0.031025   0.356929  -0.032090  -0.029928
     8  H   -0.000539   0.000000   0.005013  -0.028089   0.374721  -0.004924
     9  H    0.011228  -0.000068  -0.009509  -0.033134   0.384142  -0.003210
    10  H   -0.000516  -0.000001  -0.006637  -0.038387   0.381513   0.004526
    11  C   -0.029150   0.000006   0.311983  -0.028554  -0.001471   0.002303
    12  C    0.002257   0.000000  -0.026280  -0.003744  -0.000897   0.000017
    13  H   -0.000580  -0.000024  -0.032544   0.002200   0.000046  -0.000026
    14  H   -0.000061  -0.000025  -0.030942  -0.002552   0.001510   0.000014
    15  H   -0.000089   0.000000   0.004523   0.000044  -0.000003   0.000001
    16  H    0.000572   0.000000  -0.007366  -0.000290   0.000045  -0.000012
    17  H    0.000173   0.000000  -0.007625   0.001695   0.000447   0.000016
    18  C   -0.031682   0.000005   0.318166  -0.033635   0.001801  -0.001664
    19  C   -0.000043  -0.000040  -0.037523  -0.002257   0.000076   0.001287
    20  H   -0.002502  -0.000023  -0.029705   0.002140  -0.000029   0.000034
    21  H    0.004206  -0.000001  -0.030810  -0.004735   0.000003  -0.000290
    22  H   -0.000426   0.000000   0.004771  -0.000016   0.000000  -0.000059
    23  H    0.011156  -0.000133  -0.010796  -0.000093  -0.000006  -0.000009
    24  H   -0.000392  -0.000005  -0.005437   0.001628  -0.000019   0.003183
    25  C   -0.025075   0.303993  -0.000068   0.000000   0.000000   0.000000
    26  C   -0.003208  -0.080179  -0.000030  -0.000002   0.000001  -0.000003
    27  C   -0.000698   0.005997   0.000008   0.000000   0.000000   0.000000
    28  H    0.008910  -0.015560  -0.000187   0.000001  -0.000001   0.000017
    29  C   -0.000358   0.004822   0.000000   0.000000   0.000000   0.000000
    30  H    0.000770  -0.000250   0.000000   0.000000   0.000000   0.000000
    31  H   -0.000043  -0.000211   0.000000   0.000000   0.000000   0.000000
    32  C    0.000790  -0.067578  -0.000002   0.000000   0.000000   0.000000
    33  H    0.001703  -0.001543   0.000000   0.000000   0.000000   0.000000
    34  N    0.000260  -0.000133   0.000000   0.000000   0.000000   0.000000
               7          8          9         10         11         12
     1  Au   0.004216  -0.000539   0.011228  -0.000516  -0.029150   0.002257
     2  S   -0.000001   0.000000  -0.000068  -0.000001   0.000006   0.000000
     3  P   -0.031025   0.005013  -0.009509  -0.006637   0.311983  -0.026280
     4  C    0.356929  -0.028089  -0.033134  -0.038387  -0.028554  -0.003744
     5  C   -0.032090   0.374721   0.384142   0.381513  -0.001471  -0.000897
     6  H   -0.029928  -0.004924  -0.003210   0.004526   0.002303   0.000017
     7  H    0.564062  -0.003942   0.004090  -0.003825  -0.005113   0.002206
     8  H   -0.003942   0.548526  -0.026551  -0.029977   0.000011  -0.000002
     9  H    0.004090  -0.026551   0.493346  -0.028711  -0.000279   0.000025
    10  H   -0.003825  -0.029977  -0.028711   0.559543   0.001937   0.000347
    11  C   -0.005113   0.000011  -0.000279   0.001937   5.238945   0.349860
    12  C    0.002206  -0.000002   0.000025   0.000347   0.349860   5.059861
    13  H   -0.000024   0.000001  -0.000009   0.000006   0.374597  -0.032562
    14  H   -0.000174  -0.000043  -0.000106   0.001647   0.373491  -0.033380
    15  H   -0.000080   0.000000   0.000000  -0.000025  -0.029438   0.378348
    16  H    0.000018   0.000000  -0.000002  -0.000008  -0.036324   0.382441
    17  H    0.002576  -0.000013  -0.000012   0.001417  -0.036321   0.382580
    18  C   -0.002565  -0.000062   0.000026   0.000006  -0.029281  -0.004461
    19  C   -0.000175   0.000000  -0.000005  -0.000001   0.001784   0.000086
    20  H    0.000002   0.000001   0.000000   0.000000  -0.001229  -0.000215
    21  H    0.003558  -0.000003   0.000000   0.000000  -0.003126   0.001459
    22  H   -0.000007   0.000000   0.000000   0.000000  -0.000058   0.000000
    23  H    0.000005   0.000000  -0.000001   0.000000   0.000023  -0.000003
    24  H    0.000227   0.000003   0.000002   0.000001   0.000020  -0.000005
    25  C    0.000000   0.000000  -0.000001   0.000000   0.000000   0.000000
    26  C    0.000000   0.000000  -0.000001   0.000000   0.000000   0.000000
    27  C    0.000000   0.000000   0.000000   0.000000   0.000000   0.000000
    28  H    0.000000   0.000000  -0.000005   0.000000   0.000000   0.000000
    29  C    0.000000   0.000000   0.000000   0.000000   0.000000   0.000000
    30  H    0.000000   0.000000   0.000000   0.000000   0.000000   0.000000
    31  H    0.000000   0.000000   0.000000   0.000000   0.000000   0.000000
    32  C    0.000000   0.000000   0.000000   0.000000   0.000000   0.000000
    33  H    0.000000   0.000000   0.000000   0.000000   0.000000   0.000000
    34  N    0.000000   0.000000   0.000000   0.000000   0.000000   0.000000
              13         14         15         16         17         18
     1  Au  -0.000580  -0.000061  -0.000089   0.000572   0.000173  -0.031682
     2  S   -0.000024  -0.000025   0.000000   0.000000   0.000000   0.000005
     3  P   -0.032544  -0.030942   0.004523  -0.007366  -0.007625   0.318166
     4  C    0.002200  -0.002552   0.000044  -0.000290   0.001695  -0.033635
     5  C    0.000046   0.001510  -0.000003   0.000045   0.000447   0.001801
     6  H   -0.000026   0.000014   0.000001  -0.000012   0.000016  -0.001664
     7  H   -0.000024  -0.000174  -0.000080   0.000018   0.002576  -0.002565
     8  H    0.000001  -0.000043   0.000000   0.000000  -0.000013  -0.000062
     9  H   -0.000009  -0.000106   0.000000  -0.000002  -0.000012   0.000026
    10  H    0.000006   0.001647  -0.000025  -0.000008   0.001417   0.000006
    11  C    0.374597   0.373491  -0.029438  -0.036324  -0.036321  -0.029281
    12  C   -0.032562  -0.033380   0.378348   0.382441   0.382580  -0.004461
    13  H    0.520623  -0.025261  -0.004075  -0.003027   0.004338  -0.002783
    14  H   -0.025261   0.517634  -0.004000   0.004300  -0.003414   0.002071
    15  H   -0.004075  -0.004000   0.543939  -0.029370  -0.029472   0.000040
    16  H   -0.003027   0.004300  -0.029370   0.553542  -0.030620   0.002316
    17  H    0.004338  -0.003414  -0.029472  -0.030620   0.553933  -0.000267
    18  C   -0.002783   0.002071   0.000040   0.002316  -0.000267   5.231363
    19  C    0.000013  -0.000025   0.000000  -0.000016  -0.000007   0.364825
    20  H    0.001823   0.000033  -0.000016   0.000385   0.000029   0.370408
    21  H   -0.000199  -0.000034  -0.000060   0.003197   0.000058   0.359140
    22  H   -0.000003   0.000001   0.000000   0.000004   0.000000  -0.028633
    23  H   -0.000002   0.000000   0.000000   0.000000   0.000000  -0.032634
    24  H    0.000002   0.000001   0.000000   0.000003   0.000000  -0.038615
    25  C    0.000000   0.000000   0.000000   0.000000   0.000000   0.000000
    26  C    0.000000   0.000000   0.000000   0.000000   0.000000   0.000002
    27  C    0.000000   0.000000   0.000000   0.000000   0.000000   0.000000
    28  H    0.000000   0.000000   0.000000   0.000000   0.000000  -0.000010
    29  C    0.000000   0.000000   0.000000   0.000000   0.000000   0.000000
    30  H    0.000000   0.000000   0.000000   0.000000   0.000000   0.000000
    31  H    0.000000   0.000000   0.000000   0.000000   0.000000   0.000000
    32  C    0.000000   0.000000   0.000000   0.000000   0.000000   0.000000
    33  H    0.000000   0.000000   0.000000   0.000000   0.000000   0.000000
    34  N    0.000000   0.000000   0.000000   0.000000   0.000000   0.000000
              19         20         21         22         23         24
     1  Au  -0.000043  -0.002502   0.004206  -0.000426   0.011156  -0.000392
     2  S   -0.000040  -0.000023  -0.000001   0.000000  -0.000133  -0.000005
     3  P   -0.037523  -0.029705  -0.030810   0.004771  -0.010796  -0.005437
     4  C   -0.002257   0.002140  -0.004735  -0.000016  -0.000093   0.001628
     5  C    0.000076  -0.000029   0.000003   0.000000  -0.000006  -0.000019
     6  H    0.001287   0.000034  -0.000290  -0.000059  -0.000009   0.003183
     7  H   -0.000175   0.000002   0.003558  -0.000007   0.000005   0.000227
     8  H    0.000000   0.000001  -0.000003   0.000000   0.000000   0.000003
     9  H   -0.000005   0.000000   0.000000   0.000000  -0.000001   0.000002
    10  H   -0.000001   0.000000   0.000000   0.000000   0.000000   0.000001
    11  C    0.001784  -0.001229  -0.003126  -0.000058   0.000023   0.000020
    12  C    0.000086  -0.000215   0.001459   0.000000  -0.000003  -0.000005
    13  H    0.000013   0.001823  -0.000199  -0.000003  -0.000002   0.000002
    14  H   -0.000025   0.000033  -0.000034   0.000001   0.000000   0.000001
    15  H    0.000000  -0.000016  -0.000060   0.000000   0.000000   0.000000
    16  H   -0.000016   0.000385   0.003197   0.000004   0.000000   0.000003
    17  H   -0.000007   0.000029   0.000058   0.000000   0.000000   0.000000
    18  C    0.364825   0.370408   0.359140  -0.028633  -0.032634  -0.038615
    19  C    5.064656  -0.028026  -0.032651   0.374617   0.383865   0.381431
    20  H   -0.028026   0.531079  -0.029255  -0.005163  -0.003330   0.004526
    21  H   -0.032651  -0.029255   0.560913  -0.003803   0.003972  -0.003320
    22  H    0.374617  -0.005163  -0.003803   0.548670  -0.026382  -0.029831
    23  H    0.383865  -0.003330   0.003972  -0.026382   0.495586  -0.028915
    24  H    0.381431   0.004526  -0.003320  -0.029831  -0.028915   0.556568
    25  C    0.000001   0.000000   0.000000   0.000000  -0.000009   0.000000
    26  C   -0.000064   0.000000   0.000000   0.000001   0.000004  -0.000010
    27  C   -0.000002   0.000000   0.000000   0.000000  -0.000002   0.000000
    28  H    0.000055   0.000001   0.000000  -0.000004   0.000495   0.000044
    29  C    0.000000   0.000000   0.000000   0.000000   0.000000   0.000000
    30  H    0.000000   0.000000   0.000000   0.000000  -0.000001   0.000000
    31  H    0.000000   0.000000   0.000000   0.000000   0.000000   0.000000
    32  C    0.000000   0.000000   0.000000   0.000000   0.000000   0.000000
    33  H    0.000000   0.000000   0.000000   0.000000   0.000000   0.000000
    34  N    0.000000   0.000000   0.000000   0.000000   0.000000   0.000000
              25         26         27         28         29         30
     1  Au  -0.025075  -0.003208  -0.000698   0.008910  -0.000358   0.000770
     2  S    0.303993  -0.080179   0.005997  -0.015560   0.004822  -0.000250
     3  P   -0.000068  -0.000030   0.000008  -0.000187   0.000000   0.000000
     4  C    0.000000  -0.000002   0.000000   0.000001   0.000000   0.000000
     5  C    0.000000   0.000001   0.000000  -0.000001   0.000000   0.000000
     6  H    0.000000  -0.000003   0.000000   0.000017   0.000000   0.000000
     7  H    0.000000   0.000000   0.000000   0.000000   0.000000   0.000000
     8  H    0.000000   0.000000   0.000000   0.000000   0.000000   0.000000
     9  H   -0.000001  -0.000001   0.000000  -0.000005   0.000000   0.000000
    10  H    0.000000   0.000000   0.000000   0.000000   0.000000   0.000000
    11  C    0.000000   0.000000   0.000000   0.000000   0.000000   0.000000
    12  C    0.000000   0.000000   0.000000   0.000000   0.000000   0.000000
    13  H    0.000000   0.000000   0.000000   0.000000   0.000000   0.000000
    14  H    0.000000   0.000000   0.000000   0.000000   0.000000   0.000000
    15  H    0.000000   0.000000   0.000000   0.000000   0.000000   0.000000
    16  H    0.000000   0.000000   0.000000   0.000000   0.000000   0.000000
    17  H    0.000000   0.000000   0.000000   0.000000   0.000000   0.000000
    18  C    0.000000   0.000002   0.000000  -0.000010   0.000000   0.000000
    19  C    0.000001  -0.000064  -0.000002   0.000055   0.000000   0.000000
    20  H    0.000000   0.000000   0.000000   0.000001   0.000000   0.000000
    21  H    0.000000   0.000000   0.000000   0.000000   0.000000   0.000000
    22  H    0.000000   0.000001   0.000000  -0.000004   0.000000   0.000000
    23  H   -0.000009   0.000004  -0.000002   0.000495   0.000000  -0.000001
    24  H    0.000000  -0.000010   0.000000   0.000044   0.000000   0.000000
    25  C    4.896485   0.505496  -0.022456  -0.052492  -0.025760   0.002846
    26  C    0.505496   5.054094   0.484500   0.349725  -0.039999  -0.066552
    27  C   -0.022456   0.484500   4.799382  -0.039180  -0.076126   0.372596
    28  H   -0.052492   0.349725  -0.039180   0.593387   0.000378  -0.002399
    29  C   -0.025760  -0.039999  -0.076126   0.000378   4.782098   0.004566
    30  H    0.002846  -0.066552   0.372596  -0.002399   0.004566   0.613387
    31  H    0.003319   0.000790   0.004609   0.000027   0.374233  -0.000233
    32  C    0.526945  -0.021248  -0.039485   0.005648   0.503547   0.000865
    33  H   -0.048712   0.006456   0.000113  -0.000117  -0.038455   0.000028
    34  N   -0.044633  -0.037669   0.508042   0.005016   0.504445  -0.047864
              31         32         33         34
     1  Au  -0.000043   0.000790   0.001703   0.000260
     2  S   -0.000211  -0.067578  -0.001543  -0.000133
     3  P    0.000000  -0.000002   0.000000   0.000000
     4  C    0.000000   0.000000   0.000000   0.000000
     5  C    0.000000   0.000000   0.000000   0.000000
     6  H    0.000000   0.000000   0.000000   0.000000
     7  H    0.000000   0.000000   0.000000   0.000000
     8  H    0.000000   0.000000   0.000000   0.000000
     9  H    0.000000   0.000000   0.000000   0.000000
    10  H    0.000000   0.000000   0.000000   0.000000
    11  C    0.000000   0.000000   0.000000   0.000000
    12  C    0.000000   0.000000   0.000000   0.000000
    13  H    0.000000   0.000000   0.000000   0.000000
    14  H    0.000000   0.000000   0.000000   0.000000
    15  H    0.000000   0.000000   0.000000   0.000000
    16  H    0.000000   0.000000   0.000000   0.000000
    17  H    0.000000   0.000000   0.000000   0.000000
    18  C    0.000000   0.000000   0.000000   0.000000
    19  C    0.000000   0.000000   0.000000   0.000000
    20  H    0.000000   0.000000   0.000000   0.000000
    21  H    0.000000   0.000000   0.000000   0.000000
    22  H    0.000000   0.000000   0.000000   0.000000
    23  H    0.000000   0.000000   0.000000   0.000000
    24  H    0.000000   0.000000   0.000000   0.000000
    25  C    0.003319   0.526945  -0.048712  -0.044633
    26  C    0.000790  -0.021248   0.006456  -0.037669
    27  C    0.004609  -0.039485   0.000113   0.508042
    28  H    0.000027   0.005648  -0.000117   0.005016
    29  C    0.374233   0.503547  -0.038455   0.504445
    30  H   -0.000233   0.000865   0.000028  -0.047864
    31  H    0.605234  -0.064606  -0.002575  -0.048529
    32  C   -0.064606   5.001010   0.351705  -0.037994
    33  H   -0.002575   0.351705   0.588867   0.005061
    34  N   -0.048529  -0.037994   0.005061   6.554548
 Mulliken charges:
               1
     1  Au  -0.107690
     2  S   -0.125435
     3  P    0.449822
     4  C   -0.441940
     5  C   -0.473457
     6  H    0.192570
     7  H    0.171059
     8  H    0.165871
     9  H    0.208743
    10  H    0.157145
    11  C   -0.454617
    12  C   -0.457938
    13  H    0.197471
    14  H    0.199316
    15  H    0.169732
    16  H    0.160212
    17  H    0.160488
    18  C   -0.443877
    19  C   -0.471859
    20  H    0.189033
    21  H    0.171780
    22  H    0.166321
    23  H    0.207208
    24  H    0.158910
    25  C   -0.019878
    26  C   -0.152105
    27  C    0.002704
    28  H    0.146252
    29  C    0.006609
    30  H    0.122241
    31  H    0.127985
    32  C   -0.159597
    33  H    0.137469
    34  N   -0.360549
 Sum of Mulliken charges =   0.00000
 Mulliken charges with hydrogens summed into heavy atoms:
               1
     1  Au  -0.107690
     2  S   -0.125435
     3  P    0.449822
     4  C   -0.078312
     5  C    0.058303
    11  C   -0.057829
    12  C    0.032494
    18  C   -0.083063
    19  C    0.060579
    25  C   -0.019878
    26  C   -0.005853
    27  C    0.124945
    29  C    0.134594
    32  C   -0.022128
    34  N   -0.360549
 Electronic spatial extent (au):  <R**2>=           6841.2884
 Charge=              0.0000 electrons
 Dipole moment (field-independent basis, Debye):
    X=             11.1052    Y=              2.0728    Z=              0.1645  Tot=             11.2982
 Quadrupole moment (field-independent basis, Debye-Ang):
   XX=           -126.7298   YY=           -124.7781   ZZ=           -122.9702
   XY=              8.8215   XZ=              1.6434   YZ=             -0.9811
 Traceless Quadrupole moment (field-independent basis, Debye-Ang):
   XX=             -1.9038   YY=              0.0479   ZZ=              1.8559
   XY=              8.8215   XZ=              1.6434   YZ=             -0.9811
 Octapole moment (field-independent basis, Debye-Ang**2):
  XXX=            211.0946  YYY=            -46.7587  ZZZ=            -14.4037  XYY=             46.3924
  XXY=            -86.3104  XXZ=            -23.0789  XZZ=             37.3362  YZZ=            -14.3013
  YYZ=             -8.5812  XYZ=              3.2715
 Hexadecapole moment (field-independent basis, Debye-Ang**3):
 XXXX=          -7648.9988 YYYY=          -1282.6394 ZZZZ=           -750.2680 XXXY=            403.1470
 XXXZ=             83.7652 YYYX=              4.2159 YYYZ=              3.7370 ZZZX=              6.1257
 ZZZY=              7.5125 XXYY=          -1514.6360 XXZZ=          -1363.6151 YYZZ=           -340.4447
 XXYZ=            -14.9204 YYXZ=             -5.1642 ZZXY=              5.1488
 N-N= 1.371451497875D+03 E-N=-5.906808178676D+03  KE= 1.263417751347D+03
   1 Symmetry operations used in ECPInt.
 ECPInt:  NShTT=    6105 NPrTT=   33235 LenC2=    5317 LenP2D=   17675.
 LDataN:  DoStor=T MaxTD1= 8 Len=  415
 Calling FoFJK, ICntrl=      2127 FMM=F ISym2X=0 I1Cent= 0 IOpClX= 0 NMat=1 NMatS=1 NMatT=0.
 Defaulting to unpruned grid for atomic number  79.
 Defaulting to unpruned grid for atomic number  79.
 Defaulting to unpruned grid for atomic number  79.
 Defaulting to unpruned grid for atomic number  79.
 Defaulting to unpruned grid for atomic number  79.
 Defaulting to unpruned grid for atomic number  79.
 Defaulting to unpruned grid for atomic number  79.
 Defaulting to unpruned grid for atomic number  79.
 ***** Axes restored to original set *****
 -------------------------------------------------------------------
 Center     Atomic                   Forces (Hartrees/Bohr)
 Number     Number              X              Y              Z
 -------------------------------------------------------------------
      1       79          -0.004637228   -0.001584775   -0.000336322
      2       16           0.007513750   -0.009168606   -0.001954072
      3       15          -0.011324321   -0.004855612   -0.000226575
      4        6           0.003222706    0.005171002    0.001992309
      5        6          -0.000447415   -0.001652544    0.003305819
      6        1          -0.000153319    0.000397030    0.000862527
      7        1           0.000927438    0.000955142    0.001586717
      8        1           0.000137842   -0.000194574    0.000845096
      9        1          -0.000011376   -0.000140582    0.000252183
     10        1           0.000357225   -0.000593540    0.000258540
     11        6           0.001908187   -0.003980276   -0.001320671
     12        6           0.003636421   -0.000844643   -0.000377920
     13        1           0.000466440   -0.001030823   -0.000361934
     14        1           0.000376434   -0.000819551   -0.000406475
     15        1           0.001285936    0.000056246   -0.000106438
     16        1           0.000602181    0.000479176   -0.000370183
     17        1           0.000527388    0.000210556    0.000461313
     18        6           0.004962612    0.001823569   -0.003359283
     19        6          -0.002325503    0.002754798   -0.000840847
     20        1          -0.000096036    0.000650633   -0.000976289
     21        1           0.000943830    0.001455273   -0.001196412
     22        1          -0.000330051    0.000796779   -0.000211478
     23        1          -0.000102623    0.000332788   -0.000143441
     24        1          -0.000183503    0.000517857    0.000540435
     25        6          -0.003008793    0.005383756    0.001160332
     26        6           0.001679337    0.001517649    0.000226476
     27        6           0.000167020    0.001994460    0.000399012
     28        1           0.000233316    0.000032154    0.000104407
     29        6          -0.001910829    0.000271726    0.000130729
     30        1          -0.000427306    0.001036249    0.000233130
     31        1          -0.000735942    0.000244812    0.000060125
     32        6           0.000051007   -0.004393586   -0.000959397
     33        1           0.000565905   -0.000386992   -0.000094928
     34        7          -0.003870735    0.003564452    0.000823515
 -------------------------------------------------------------------
 Cartesian Forces:  Max     0.011324321 RMS     0.002397604

 GradGradGradGradGradGradGradGradGradGradGradGradGradGradGradGradGradGrad
 Berny optimization.
 FormGI is forming the generalized inverse of G from B-inverse, IUseBI=4.
 Internal  Forces:  Max     0.011841062 RMS     0.002091986
 Search for a local minimum.
 Step number   1 out of a maximum of  184
 All quantities printed in internal units (Hartrees-Bohrs-Radians)
 Mixed Optimization -- RFO/linear search
 Second derivative matrix not updated -- first step.
 ITU=  0
     Eigenvalues ---    0.00230   0.00230   0.00230   0.00417   0.00424
     Eigenvalues ---    0.00424   0.00757   0.00774   0.00779   0.01032
     Eigenvalues ---    0.01866   0.02081   0.02142   0.02161   0.02246
     Eigenvalues ---    0.02327   0.02347   0.02453   0.03362   0.03647
     Eigenvalues ---    0.03650   0.04821   0.04941   0.04946   0.05382
     Eigenvalues ---    0.05464   0.05473   0.05523   0.05643   0.05650
     Eigenvalues ---    0.05681   0.05783   0.06490   0.08619   0.08626
     Eigenvalues ---    0.09146   0.12353   0.12357   0.12705   0.15371
     Eigenvalues ---    0.15881   0.16000   0.16000   0.16000   0.16000
     Eigenvalues ---    0.16000   0.16000   0.16000   0.16000   0.16000
     Eigenvalues ---    0.16000   0.16000   0.16000   0.16000   0.18485
     Eigenvalues ---    0.20957   0.21942   0.21958   0.21966   0.22000
     Eigenvalues ---    0.22815   0.23837   0.23879   0.23924   0.23953
     Eigenvalues ---    0.25000   0.25000   0.29761   0.29808   0.29813
     Eigenvalues ---    0.30488   0.34090   0.34122   0.34128   0.34143
     Eigenvalues ---    0.34178   0.34210   0.34241   0.34252   0.34289
     Eigenvalues ---    0.34298   0.34322   0.34322   0.34338   0.34339
     Eigenvalues ---    0.34374   0.34916   0.34928   0.35308   0.35319
     Eigenvalues ---    0.42480   0.43238   0.45989   0.47745   0.55682
     Eigenvalues ---    0.56997
 RFO step:  Lambda=-3.19658432D-03 EMin= 2.30000000D-03
 Linear search not attempted -- first point.
 Iteration  1 RMS(Cart)=  0.18994689 RMS(Int)=  0.00453085
 Iteration  2 RMS(Cart)=  0.02840618 RMS(Int)=  0.00036474
 Iteration  3 RMS(Cart)=  0.00043571 RMS(Int)=  0.00034275
 Iteration  4 RMS(Cart)=  0.00000028 RMS(Int)=  0.00034275
 Variable       Old X    -DE/DX   Delta X   Delta X   Delta X     New X
                                 (Linear)    (Quad)   (Total)
    R1        4.42751  -0.00028   0.00000  -0.00148  -0.00152   4.42599
    R2        4.34109   0.00462   0.00000   0.02173   0.02177   4.36286
    R3        3.30701   0.01184   0.00000   0.03844   0.03844   3.34544
    R4        3.45647   0.01060   0.00000   0.04368   0.04368   3.50015
    R5        3.45962   0.01071   0.00000   0.04433   0.04433   3.50395
    R6        3.45725   0.01067   0.00000   0.04401   0.04401   3.50126
    R7        2.88348   0.00516   0.00000   0.01714   0.01714   2.90062
    R8        2.06978   0.00055   0.00000   0.00160   0.00160   2.07138
    R9        2.07179   0.00113   0.00000   0.00330   0.00330   2.07508
   R10        2.06764   0.00069   0.00000   0.00200   0.00200   2.06963
   R11        2.06924   0.00008   0.00000   0.00024   0.00024   2.06949
   R12        2.06845   0.00064   0.00000   0.00184   0.00184   2.07028
   R13        2.88338   0.00574   0.00000   0.01905   0.01905   2.90243
   R14        2.07124   0.00055   0.00000   0.00158   0.00158   2.07282
   R15        2.07030   0.00033   0.00000   0.00094   0.00094   2.07125
   R16        2.06830   0.00075   0.00000   0.00216   0.00216   2.07046
   R17        2.06703   0.00071   0.00000   0.00203   0.00203   2.06906
   R18        2.06762   0.00063   0.00000   0.00181   0.00181   2.06943
   R19        2.88443   0.00515   0.00000   0.01713   0.01713   2.90156
   R20        2.07115   0.00064   0.00000   0.00186   0.00186   2.07301
   R21        2.07089   0.00121   0.00000   0.00351   0.00351   2.07440
   R22        2.06790   0.00065   0.00000   0.00188   0.00188   2.06978
   R23        2.06906   0.00000   0.00000   0.00000   0.00000   2.06906
   R24        2.06790   0.00071   0.00000   0.00204   0.00204   2.06994
   R25        2.64937   0.00453   0.00000   0.00990   0.00990   2.65927
   R26        2.65323   0.00290   0.00000   0.00635   0.00635   2.65958
   R27        2.62325   0.00471   0.00000   0.00984   0.00984   2.63309
   R28        2.05160   0.00024   0.00000   0.00066   0.00066   2.05226
   R29        2.05812   0.00097   0.00000   0.00275   0.00275   2.06087
   R30        2.52585   0.00297   0.00000   0.00512   0.00512   2.53098
   R31        2.05792   0.00064   0.00000   0.00180   0.00180   2.05972
   R32        2.62100   0.00522   0.00000   0.01083   0.01083   2.63183
   R33        2.52728   0.00329   0.00000   0.00569   0.00569   2.53297
   R34        2.05178   0.00025   0.00000   0.00069   0.00069   2.05247
    A1        1.89751   0.00113   0.00000   0.00444   0.00444   1.90196
    A2        1.98293   0.00038   0.00000   0.00669   0.00662   1.98956
    A3        1.94188   0.00047   0.00000   0.00708   0.00720   1.94908
    A4        1.98213   0.00045   0.00000   0.00551   0.00545   1.98758
    A5        1.86328  -0.00027   0.00000  -0.00488  -0.00471   1.85858
    A6        1.83622  -0.00053   0.00000  -0.00779  -0.00869   1.82753
    A7        1.84711  -0.00066   0.00000  -0.00883  -0.00818   1.83893
    A8        1.98256   0.00123   0.00000   0.00766   0.00766   1.99022
    A9        1.85344  -0.00009   0.00000   0.00142   0.00146   1.85491
   A10        1.88624   0.00082   0.00000   0.01361   0.01362   1.89985
   A11        1.92743  -0.00076   0.00000  -0.00932  -0.00936   1.91807
   A12        1.94140  -0.00117   0.00000  -0.00750  -0.00762   1.93378
   A13        1.86711  -0.00002   0.00000  -0.00592  -0.00602   1.86110
   A14        1.92154   0.00063   0.00000   0.00386   0.00386   1.92540
   A15        1.94054   0.00018   0.00000   0.00113   0.00113   1.94167
   A16        1.95068   0.00035   0.00000   0.00210   0.00210   1.95278
   A17        1.88593  -0.00042   0.00000  -0.00249  -0.00249   1.88344
   A18        1.87810  -0.00051   0.00000  -0.00315  -0.00316   1.87495
   A19        1.88464  -0.00029   0.00000  -0.00183  -0.00184   1.88281
   A20        2.03537   0.00223   0.00000   0.01270   0.01269   2.04806
   A21        1.83970  -0.00014   0.00000   0.00434   0.00436   1.84406
   A22        1.85208  -0.00028   0.00000   0.00305   0.00306   1.85514
   A23        1.93714  -0.00101   0.00000  -0.00665  -0.00672   1.93042
   A24        1.93662  -0.00091   0.00000  -0.00605  -0.00612   1.93050
   A25        1.85113   0.00000   0.00000  -0.00853  -0.00858   1.84255
   A26        1.91296   0.00134   0.00000   0.00872   0.00871   1.92167
   A27        1.95343   0.00033   0.00000   0.00176   0.00176   1.95519
   A28        1.95338   0.00019   0.00000   0.00093   0.00093   1.95431
   A29        1.87743  -0.00084   0.00000  -0.00473  -0.00474   1.87269
   A30        1.87559  -0.00074   0.00000  -0.00400  -0.00401   1.87158
[...]
 00310544,0.00187820,-0.00008451,-0.00029446,-0.00031097,-0.00019585,-0
 .00004566,0.00007944,-0.00000097,-0.00002339,0.00001082,0.00000077,-0.
 00000203,0.00000766,-0.00002158,-0.00003153,-0.00008049,-0.00000611,0.
 00000397,-0.00001250,-0.00000003,0.00001189,0.00000726,0.00000491,0.00
 000202,-0.00000083,-0.00000856,-0.00004280,0.00000143,-0.00000255,0.00
 002744,0.00001304,-0.00000229,0.00000785,0.00000479,0.00000243,0.00000
 057,-0.00000105,-0.00001328,-0.00000021,0.00000173,0.00000099,-0.00000
 313,-0.00000087,0.00000303,-0.00000390,-0.00000141,-0.00008181,0.00000
 157,-0.00002199,-0.00001397,0.00001030,0.00000738,-0.00000054,-0.00000
 759,0.00000918,0.00000021,-0.00002438,0.00003846,-0.00000009,-0.000010
 38,0.00000352,-0.00000624,0.00001012,-0.00000266,-0.00000221,-0.000000
 28,-0.00000617,0.00455494,0.02238839,0.01907798,0.01286505,-0.01854263
 ,-0.01215307,-0.04435376,-0.02144487,-0.02150875,0.00086890,-0.0006904
 4,-0.00007027,0.16826837,0.18006359,0.29674825,0.00009694,-0.00002128,
 -0.00005859,-0.00004206,0.00075427,0.00050888,0.00003488,0.00007070,0.
 00002448,-0.00001954,0.00000157,0.00001003,0.00000321,-0.00000339,-0.0
 0000364,-0.00000508,-0.00000633,-0.00000312,0.00000018,-0.00000470,-0.
 00000768,-0.00000409,0.00000078,-0.00000159,-0.00000067,0.00000541,0.0
 0000398,0.00000370,-0.00000327,0.00000065,-0.00002091,-0.00002113,-0.0
 0000132,-0.00000237,0.00000742,0.00000155,0.00000356,-0.00000082,-0.00
 000119,0.00000448,-0.00000150,0.00000007,-0.00000223,-0.00000177,-0.00
 000019,-0.00000150,-0.00000052,0.00000120,-0.00000161,0.00000010,-0.00
 000071,-0.00001363,0.00000023,-0.00001606,-0.00000828,-0.00000624,0.00
 001472,0.00000436,-0.00000467,-0.00000323,0.00000568,-0.00001208,0.000
 00750,0.00000505,-0.00000440,-0.00000444,-0.00000358,0.00002163,0.0000
 1688,-0.00001881,-0.00000783,-0.00000908,-0.00264502,0.00363890,-0.002
 06782,0.00704153,0.02140294,0.01048576,-0.05719541,-0.01860060,-0.0146
 2527,0.00024255,-0.00100748,0.00080842,-0.00296141,-0.00049987,-0.0047
 9536,0.06725628,-0.00022266,-0.00008227,-0.00001206,0.00024372,-0.0008
 1756,-0.00019004,-0.00021537,-0.00014272,-0.00001459,0.00009561,0.0000
 1592,-0.00003549,-0.00000930,0.00001725,0.00000365,-0.00000108,0.00000
 441,-0.00000174,0.00001420,0.00001830,0.00003914,0.00001612,0.00000176
 ,0.00001371,0.00000207,-0.00001117,-0.00002251,-0.00000612,0.00000270,
 -0.00000130,0.00005921,0.00006216,0.00000626,0.00000312,-0.00003403,-0
 .00000876,-0.00000772,0.00000542,0.00000753,-0.00000867,0.00000572,-0.
 00000226,0.00001520,0.00000229,-0.00000123,0.00000139,0.00000458,-0.00
 000214,0.00000303,0.00000392,0.00000447,0.00007273,0.00001394,0.000040
 08,0.00000605,-0.00000172,-0.00002797,-0.00001212,0.00000342,0.0000102
 5,0.00000118,0.00003604,-0.00002570,-0.00000199,0.00001286,-0.00000167
 ,0.00000995,-0.00003474,-0.00001300,0.00002252,0.00000802,0.00001838,0
 .00412197,0.00039056,-0.00174064,-0.00434808,-0.01442957,-0.01103115,-
 0.01916746,-0.26990768,-0.11245464,-0.00011398,0.00000899,0.00148132,0
 .00092717,0.00406455,-0.00239842,0.02775119,0.28260016,-0.00008017,-0.
 00001286,-0.00003755,0.00024908,-0.00001565,-0.00025239,-0.00010943,-0
 .00010048,0.00003001,0.00004389,0.00001516,-0.00002164,-0.00000920,0.,
 0.00000122,-0.00000439,-0.00000199,0.00000645,0.00000928,0.00000847,0.
 00001585,0.00000200,0.00000096,0.00000202,0.00000118,0.00000172,-0.000
 00585,0.00000031,0.00000150,-0.00000278,0.00003188,0.00003734,-0.00000
 848,0.00000192,-0.00001757,-0.00000133,-0.00000435,0.00000024,0.000003
 11,-0.00000821,0.00000661,0.,0.00000715,0.00000167,-0.00000084,0.00000
 209,0.00000297,-0.00000261,0.00000084,0.00000124,0.00000134,0.00003021
 ,-0.00000038,0.00001471,0.00001189,0.00001587,-0.00001720,-0.00000715,
 0.00000473,0.00000430,-0.00000593,0.00002296,-0.00001257,0.00000463,0.
 00001052,-0.00000644,0.00000907,-0.00003926,-0.00000571,0.00001515,0.0
 0000041,0.00001312,-0.00180593,-0.00175807,0.00599929,-0.00145697,-0.0
 0178048,0.00449422,-0.01526778,-0.11232561,-0.09785897,0.00130400,0.00
 111900,-0.00223465,-0.00418370,-0.00291443,0.00697491,0.02734550,0.127
 99098,0.09514223,0.00004976,0.00026330,-0.00000038,-0.00092219,-0.0002
 6650,-0.00013762,0.00021105,0.00003221,-0.00001012,-0.00007981,-0.0000
 2061,0.00003343,0.00001127,-0.00000924,-0.00000002,0.00000812,0.000008
 95,0.00000334,-0.00001762,-0.00001633,-0.00003334,-0.00000549,-0.00000
 323,-0.00000951,-0.00000180,-0.00000236,0.00001480,-0.00000344,0.00000
 489,0.00000351,-0.00005167,-0.00005855,-0.00000521,-0.00000231,0.00004
 124,0.00000952,0.00000337,-0.00000266,-0.00000321,0.00000542,-0.000004
 85,-0.00000017,-0.00002159,0.00000098,0.00000193,0.00000139,-0.0000070
 9,-0.00000001,0.00000152,-0.00000511,-0.00000227,-0.00009037,-0.000018
 51,-0.00002894,0.00000245,0.00001249,0.00001037,0.00000365,0.00000545,
 -0.00000209,-0.00000972,-0.00003222,0.00002705,-0.00000633,-0.00001382
 ,0.00000713,-0.00000674,0.00000815,-0.00001866,0.00000518,0.00000419,-
 0.00000140,-0.00035153,0.00417624,-0.00082936,0.00028901,0.00059454,0.
 00047792,0.00356494,0.00108551,-0.00177031,-0.00028777,-0.00021205,0.0
 0040250,-0.28560376,-0.02636859,-0.09856849,-0.00011072,0.00010010,-0.
 00019226,0.29944138,0.00005628,-0.00021592,0.00014571,0.00076552,0.000
 17870,0.00027574,-0.00005159,0.00004643,-0.00005373,0.00001266,-0.0000
 0287,-0.00000538,-0.00000279,0.00000333,0.00000425,0.00000053,0.000001
 25,-0.00000068,0.00000161,0.00000249,0.00000572,0.00000355,0.00000035,
 0.00000252,0.00000211,-0.00000279,-0.00000403,-0.00000157,0.00000044,-
 0.00000025,0.00000084,0.00000452,0.00000417,-0.00000005,-0.00000316,-0
 .00000106,-0.00000084,0.00000045,0.00000050,-0.00000145,-0.00000088,-0
 .00000067,0.00000206,-0.00000005,-0.00000005,-0.00000008,0.00000064,0.
 00000006,0.00000038,0.00000053,0.00000047,0.00004007,0.00000855,0.0000
 1306,0.00000870,-0.00000112,-0.00000433,-0.00000201,0.00000076,0.00000
 157,0.00000075,0.00001522,-0.00001202,-0.00000267,0.00000198,0.0000007
 5,0.00000103,-0.00000726,-0.00000502,0.00000453,0.00000237,0.00000364,
 0.00368181,-0.00174914,-0.00293086,-0.00019527,-0.00062278,-0.00020228
 ,-0.00043654,-0.00219034,-0.00561020,-0.00036830,-0.00001863,0.0006022
 4,-0.02561518,-0.05789603,-0.01673837,-0.00095339,-0.00009553,-0.00065
 538,0.03469609,0.06676128,0.00006242,-0.00001802,-0.00007804,-0.000120
 66,0.00036034,-0.00017446,0.00010726,0.00003841,0.00002482,-0.00000493
 ,-0.00000056,-0.00000062,0.00000423,-0.00000129,-0.00000199,0.00000277
 ,0.00000405,0.00000152,-0.00000443,-0.00000159,-0.00000191,-0.00000206
 ,-0.00000217,-0.00000259,-0.00000085,-0.00000249,0.00000579,-0.0000019
 2,0.00000172,0.00000140,-0.00000722,-0.00000753,-0.00000196,0.00000107
 ,0.00000681,0.00000153,0.00000153,-0.00000184,-0.00000181,0.00000153,-
 0.00000133,0.00000055,-0.00000458,0.00000096,0.00000072,0.00000048,-0.
 00000157,-0.00000008,-0.00000003,-0.00000161,-0.00000105,-0.00001442,-
 0.00000562,-0.00000488,0.00000159,0.00000338,0.00000121,0.00000308,0.0
 0000294,-0.00000234,-0.00000401,-0.00000610,0.00000158,-0.00000087,-0.
 00000126,0.00000213,-0.00000169,0.00000040,-0.00000305,0.00000156,0.00
 000091,-0.00000074,-0.00090864,-0.00302139,0.00580343,0.00005136,0.000
 18758,-0.00025427,-0.00244934,-0.00514786,0.00663494,0.00035629,0.0006
 9849,-0.00123128,-0.09836707,-0.01698903,-0.08365782,-0.00067167,-0.00
 027313,0.00021953,0.11242100,0.03053156,0.08030357,0.00078325,0.002109
 95,0.00054750,-0.03233324,0.01131910,-0.00859759,0.00140122,0.00024017
 ,-0.00031324,-0.00060932,-0.00013147,0.00024525,0.00006681,-0.00008748
 ,-0.00000852,0.00002393,0.00001130,0.00000925,-0.00009950,-0.00012156,
 -0.00024509,-0.00005763,-0.00002062,-0.00006377,-0.00002279,0.00002232
 ,0.00011358,0.00000072,0.00001764,0.00001665,-0.00024198,-0.00030412,-
 0.00001446,-0.00001157,0.00021021,0.00005791,0.00001184,-0.00001247,-0
 .00000816,0.00002934,-0.00003174,0.00000135,-0.00010641,0.00000331,0.0
 0001079,0.00000507,-0.00003591,0.00000368,0.00000535,-0.00002742,-0.00
 001640,-0.00053830,-0.00009718,-0.00018944,-0.00008958,0.00003410,0.00
 007764,0.00004758,0.00002968,-0.00003056,-0.00003345,-0.00022671,0.000
 16749,-0.00000503,-0.00007963,0.00003025,-0.00005159,0.00011308,-0.000
 03742,-0.00001423,-0.00000562,-0.00004174,-0.26740981,-0.01144686,-0.0
 7580950,0.01413119,-0.06039662,-0.02578104,-0.06083922,0.00931375,-0.0
 1482245,0.00267824,0.00089296,-0.00089607,-0.23265266,0.07597272,-0.02
 511748,-0.00058532,0.00059294,0.00019793,-0.01626633,0.02085132,0.0017
 6684,0.60785160,0.00043180,-0.00326072,-0.00030211,0.02803325,0.001265
 89,0.00650581,-0.00107552,0.00034857,0.00008892,0.00058664,0.00010656,
 -0.00023537,-0.00005346,0.00008656,0.00001712,-0.00001977,-0.00000824,
 -0.00001732,0.00008933,0.00011192,0.00023855,0.00005010,0.00000954,0.0
 0006052,0.00001999,-0.00002887,-0.00008740,-0.00000562,-0.00001446,-0.
 00001289,0.00019281,0.00025891,0.00003364,0.00000987,-0.00018530,-0.00
 005196,-0.00000902,0.00000789,0.00000904,-0.00002691,0.00001787,-0.000
 00127,0.00009680,-0.00000252,-0.00000789,-0.00000576,0.00003158,0.0000
 0024,-0.00000583,0.00002375,0.00001242,0.00064493,0.00012225,0.0002026
 5,0.00005910,-0.00006194,-0.00007123,-0.00003076,-0.00000894,0.0000165
 6,0.00003864,0.00023535,-0.00020278,0.00000158,0.00007289,-0.00002081,
 0.00003237,-0.00009364,0.00002538,0.00002358,0.00000909,0.00003877,-0.
 05350959,-0.11640505,-0.04302127,-0.03440684,0.01177604,-0.00986008,0.
 02675584,-0.00834934,0.00988934,-0.00005479,-0.00396623,-0.00481397,0.
 13939811,-0.21800447,-0.02075486,-0.00027949,0.00019048,0.00017120,-0.
 00479210,0.00750090,-0.00126129,-0.05919884,0.64771234,0.00081868,-0.0
 0091372,0.00108848,-0.00013542,0.00059747,0.00591296,-0.00021124,0.000
 28776,-0.00039226,-0.00000465,-0.00002977,0.00002013,-0.00001597,-0.00
 000005,0.00002285,0.00000185,0.00000162,-0.00000376,0.00000738,0.00000
 165,0.00000072,0.00001014,0.00000325,0.00000643,0.00001128,-0.00000571
 ,-0.00000777,-0.00000239,0.00000163,-0.00000141,-0.00004676,-0.0000213
 3,0.00002009,-0.00000780,0.00001061,0.00000638,-0.00000979,0.00000510,
 0.00000746,-0.00000886,-0.00000944,-0.00000393,0.00000080,-0.00000489,
 0.00000007,-0.00000092,0.00000206,0.00000076,0.00000390,0.00000203,0.0
 0000118,0.00015018,0.00003865,0.00004070,0.00002262,-0.00001339,-0.000
 00631,-0.00000760,-0.00000059,0.00000770,0.00000783,0.00005334,-0.0000
 3888,-0.00000869,0.00000282,0.00000132,-0.00000446,-0.00002186,-0.0000
 2235,0.00001610,0.00000939,0.00001227,-0.09647259,-0.02719430,-0.10917
 131,-0.01321873,-0.01952827,-0.00798608,-0.00628205,0.00363658,-0.0086
 6285,-0.00151581,-0.00456154,0.00392469,0.00389200,-0.04361117,-0.0829
 7284,-0.00020479,0.00047239,-0.00026412,-0.01020831,0.00821111,0.00610
 274,0.14384606,0.22197224,0.27776852,-0.00020969,0.00006527,0.00039588
 ,0.00078591,-0.00107324,0.00032905,-0.00004536,-0.00009119,-0.00014917
 ,0.00002621,-0.00000343,-0.00001555,-0.00000576,0.00000904,0.00000524,
 -0.00000081,0.00000418,0.00000242,0.00000407,0.00000923,0.00001440,0.0
 0000792,0.00000230,0.00000775,0.00000398,-0.00000471,-0.00001273,-0.00
 000211,-0.00000052,-0.00000217,0.00005849,0.00005642,0.00001257,0.0000
 0501,-0.00003509,-0.00000679,-0.00000548,0.00000607,0.00000251,-0.0000
 0219,0.00000016,-0.00000006,0.00001527,0.00000141,-0.00000123,-0.00000
 144,0.00000367,-0.00000091,0.00000122,0.00000314,0.00000302,0.00007809
 ,0.00001928,0.00003021,0.00000869,-0.00000435,-0.00000986,-0.00000683,
 -0.00000451,0.00000807,0.00000446,0.00003294,-0.00002240,-0.00000406,0
 .00000721,-0.00000090,0.00000330,-0.00001132,-0.00000673,0.00000600,0.
 00000456,0.00000783,-0.00212649,-0.02574072,-0.01351237,-0.00456938,0.
 00087250,-0.00363522,-0.00205576,0.00018025,-0.00059720,0.00003579,-0.
 00149973,-0.00080863,0.00998742,0.01935145,0.01242794,0.00011846,-0.00
 019049,0.00053438,0.00030387,-0.00098759,0.00078451,-0.06807255,-0.045
 02318,-0.03254517,0.06751888,-0.00006685,-0.00004080,0.00023859,0.0002
 6965,0.00052174,0.00119938,0.00004636,0.00002396,-0.00009544,-0.000036
 42,-0.00001528,0.00001446,0.00000164,-0.00000101,0.00000462,0.00000484
 ,0.00000580,0.00000327,-0.00000848,-0.00000614,-0.00001469,0.00000120,
 -0.00000040,-0.00000155,0.00000098,-0.00000315,0.00000075,-0.00000199,
 0.00000221,0.00000117,-0.00001512,-0.00002095,0.00000317,-0.00000089,0
 .00001286,0.00000325,0.00000009,0.00000240,-0.00000095,0.00000292,-0.0
 0000275,-0.00000059,-0.00000692,0.00000052,0.00000056,-0.00000045,-0.0
 0000268,-0.00000011,0.00000127,-0.00000149,0.00000006,0.00000059,0.000
 00265,-0.00000267,0.00000334,0.00000188,0.00000351,-0.00000377,-0.0000
 0076,0.00000424,-0.00000146,0.00000030,0.00000336,-0.00000464,-0.00000
 545,0.00000256,-0.00000228,-0.00000270,-0.00001377,0.00000619,0.000004
 99,0.00000363,0.00096130,-0.00148588,-0.00140381,0.00009444,0.00243648
 ,-0.00184213,0.00088184,0.00089298,0.00073837,0.00001633,0.00008257,-0
 .00006655,-0.00906908,-0.01458671,-0.00998290,-0.00034082,-0.00037189,
 0.00047564,-0.00013106,0.00003205,0.00153344,-0.04670932,-0.26372243,-
 0.12339767,0.04902402,0.27701502,-0.00004736,-0.00008518,-0.00016957,0
 .00072301,0.00097329,-0.00156542,0.00010096,0.00005725,0.00008185,0.00
 006578,0.00001910,-0.00002760,-0.00000151,0.00000427,-0.00000483,-0.00
 000080,0.00000107,-0.00000086,0.00000819,0.00001112,0.00002571,0.00000
 030,-0.00000223,0.00000236,0.00000028,-0.00000362,0.00000098,-0.000001
 88,0.00000035,0.00000020,0.00001964,0.00002862,-0.00000122,0.00000211,
 -0.00001546,-0.00000372,-0.00000013,-0.00000345,-0.00000053,-0.0000021
 1,0.00000035,0.00000061,0.00000629,0.00000143,0.00000007,0.00000040,0.
 00000194,-0.00000047,-0.00000098,0.00000074,0.00000008,0.00002711,-0.0
 0000345,0.00001277,0.00001064,-0.00000030,-0.00000427,0.00000170,0.000
 00406,-0.00000360,-0.00000350,0.00001043,-0.00001343,-0.00000208,0.000
 00607,0.00000011,-0.00000082,-0.00000401,0.00000005,0.00000137,0.00000
 008,0.00000087,-0.00133890,-0.01050938,-0.00330852,-0.00388542,-0.0014
 4499,0.00461799,0.00011953,0.00038900,0.00012379,-0.00009382,-0.000594
 12,0.00006987,-0.00093170,0.00029713,0.00010854,0.00047280,0.00053500,
 -0.00125794,0.00118324,0.00118831,-0.00229035,-0.03296975,-0.12327848,
 -0.10440727,0.03810189,0.13512402,0.10144828,0.00030310,0.00024123,0.0
 0033210,-0.00195665,0.00419800,0.00241446,0.00095969,0.00037465,-0.000
 09044,-0.00024057,-0.00008296,0.00009458,0.00004034,-0.00002229,0.0000
 0532,0.00004097,0.00004916,0.00001567,-0.00007167,-0.00004419,-0.00009
 897,-0.00001737,-0.00001318,-0.00003336,0.00000078,-0.00002133,0.00005
 558,-0.00001727,0.00001709,0.00001270,-0.00017374,-0.00019236,-0.00000
 485,-0.00000173,0.00012944,0.00002255,0.00002047,-0.00000879,-0.000025
 80,0.00002738,-0.00002076,0.00000558,-0.00006934,0.00000351,0.00000788
 ,0.00000119,-0.00002418,0.00000232,0.00000139,-0.00001900,-0.00001000,
 -0.00020981,-0.00003851,-0.00007273,0.00002037,0.00002841,0.00004066,0
 .00001273,0.00001193,-0.00001134,-0.00003174,-0.00008492,0.00005922,-0
 .00003052,-0.00004462,0.00003360,-0.00002452,0.00002995,-0.00008130,0.
 00002606,0.00002557,-0.00000372,-0.02657949,-0.03830663,-0.02407100,-0
 .06240383,0.05385036,-0.00583888,-0.29885874,-0.03446006,-0.09801609,-
 0.00170781,0.00495750,-0.00148672,-0.12146247,-0.00835129,-0.02206820,
 -0.01117864,-0.00975442,-0.00666693,-0.00006319,-0.03151055,-0.0130031
 2,0.05300436,0.00203274,0.01212317,-0.00186515,0.00508255,-0.00156449,
 0.47250540,-0.00052496,-0.00020579,-0.00050139,0.00426779,-0.00140887,
 0.00279340,-0.00077891,-0.00054262,0.00022920,0.00037122,0.00009659,-0
 .00014825,-0.00004266,0.00004549,-0.00000146,-0.00002085,-0.00000371,0
 .00000428,0.00006431,0.00007489,0.00014761,0.00003866,0.00001162,0.000
 03966,0.00000949,-0.00001418,-0.00007188,-0.00000261,-0.00000223,-0.00
 001003,0.00020908,0.00023529,-0.00000846,0.00001070,-0.00014182,-0.000
 03195,-0.00001856,0.00001415,0.00001582,-0.00002657,0.00002678,-0.0000
 0077,0.00006541,0.00000377,-0.00000673,0.00000162,0.00002183,-0.000007
 80,0.00000249,0.00001589,0.00001318,0.00024920,0.00004381,0.00010615,0
 .00004660,0.00000363,-0.00007133,-0.00003563,-0.00000963,0.00003059,0.
 00001160,0.00012967,-0.00008497,0.00001109,0.00005401,-0.00002666,0.00
 004479,-0.00010524,0.00000731,0.00003006,0.00000247,0.00004388,-0.0377
 4781,-0.02679519,-0.02217382,-0.00166427,0.05167780,0.01393478,-0.0125
 8251,-0.11850642,-0.02770773,0.00524296,-0.00080117,-0.00261014,-0.030
 47266,-0.28642576,-0.10924557,-0.03187354,-0.00154459,-0.01026701,-0.0
 0906942,-0.01175572,-0.00662532,0.05719902,-0.05577622,-0.01599603,0.0
 0501697,-0.00076794,-0.00270897,0.05196793,0.45234942,-0.00011397,-0.0
 0026499,-0.00044087,0.00188297,0.00201918,-0.00029523,0.00013485,0.000
 07663,0.00017585,0.00012702,0.00001806,-0.00003796,0.00000367,0.000028
 50,-0.00000446,0.00000773,0.00001586,-0.00000319,0.00000584,0.00002566
 ,0.00005045,0.00001513,-0.00000120,0.00001340,0.00000116,-0.00001892,-
 0.00001654,-0.00000938,0.00000196,0.00000135,0.00001662,0.00002280,0.0
 0000675,0.00000410,-0.00001717,-0.00001644,0.00000563,0.00000009,-0.00
 000772,0.00000609,0.00000013,0.00000202,0.00000633,0.00000180,-0.00000
 109,-0.00000231,-0.00000157,0.00000088,-0.00000104,0.00000198,0.000003
 89,0.00002925,0.00000228,0.00002009,0.00000658,-0.00001196,-0.00000339
 ,-0.00001414,0.00000453,0.00000329,0.00000193,0.00000995,-0.00001479,-
 0.00002171,-0.00000684,0.00000786,0.00000446,0.00000053,-0.00004653,0.
 00002544,0.00001537,0.00001878,-0.02330984,-0.02124580,-0.02810457,-0.
 03120017,0.03319488,0.02635117,-0.08743238,-0.03587060,-0.11517429,-0.
 00151245,-0.00263954,0.00652722,-0.03311916,-0.10135351,-0.12500861,-0
 .01722668,-0.00236473,-0.01093125,-0.00277405,-0.01476707,-0.01139623,
 0.03787049,-0.03528144,0.01899568,-0.00134057,-0.00253526,0.00656544,0
 .15792255,0.18094040,0.23275905\\-0.00000045,0.00000109,-0.00000225,0.
 00000184,-0.00000081,-0.00000505,0.00000215,0.00000176,-0.00000380,-0.
 00000248,-0.00000584,0.00000268,0.00000156,-0.00000521,-0.00000194,-0.
 00000152,-0.00000435,0.00000435,-0.00000035,-0.00000058,0.00000286,-0.
 00000081,-0.00000876,0.00000069,-0.00000033,-0.00000699,-0.00000230,0.
 00000007,-0.00000499,-0.00000273,-0.00000079,0.00000580,-0.00000368,0.
 00000109,0.00000470,-0.00000346,0.00000084,0.00000478,-0.00000456,0.00
 000186,0.00000085,-0.00000611,0.00000154,0.00000587,-0.00000409,0.0000
 0020,0.00000616,-0.00000006,0.00000074,0.00000253,-0.00000086,-0.00000
 170,0.00000427,0.00000400,0.00000004,0.00000472,0.00000662,0.00000099,
 0.00000808,0.00000228,-0.00000014,0.00000649,0.00000509,-0.00000189,0.
 00000637,0.00000828,-0.00000132,0.00000441,0.00000485,-0.00000127,0.00
 000112,0.00000789,0.00000283,-0.00000356,-0.00000570,0.00000167,-0.000
 00600,0.00000189,-0.00000453,-0.00000324,0.00000199,0.00000008,-0.0000
 0431,0.00000014,0.00000037,-0.00000708,-0.00000325,-0.00000083,-0.0000
 0572,0.00000581,0.00000014,-0.00000108,-0.00000185,-0.00000324,0.00000
 110,-0.00000440,0.00000231,0.00000003,-0.00000706,0.00000135,-0.000001
 63,0.00000373\\\@


 I MET A TRAVELLER FROM AN ANTIQUE LAND
 WHO SAID... TWO VAST AND TRUNKLESS LEGS OF STONE
 STAND IN THE DESERT..... NEAR THEM,  ON THE SAND,
 HALF SUNK,  A SHATTERED VISAGE LIES,  WHOSE FROWN,
 AND WRINKLED LIP,  AND SNEER OF COLD COMMAND
 TELL THAT ITS SCULPTOR WELL THOSE PASSIONS READ
 WHICH YET SURVIVE,  STAMPED ON THESE LIFELESS THINGS
 THE HAND THAT MOCKED THEM,  AND THE HEART THAT FED-
 AND ON THE PEDESTAL THESE WORDS APPEAR 
 MY NAME IS OZYMANDIAS, KING OF KINGS--   
 LOOK ON MY WORKS YE MIGHTY AND DESPAIR. 
 NOTHING BESIDE REMAINS,  ROUND THE DECAY 
 OF THAT COLOSSAL WRECK,  BOUNDLESS AND BARE
 THE LONE AND LEVEL SANDS STRETCH FAR AWAY.
                                    SHELLEY
 Job cpu time:       0 days  0 hours 31 minutes  9.3 seconds.
 File lengths (MBytes):  RWF=    355 Int=      0 D2E=      0 Chk=      7 Scr=      1
 Normal termination of Gaussian 09 at Tue May  2 08:09:55 2023.
