 Entering Gaussian System, Link 0=g09
 Input=au-1to3-ts-2-af23-c-term-level3-freq-se-new-p.com
 Output=au-1to3-ts-2-af23-c-term-level3-freq-se-new-p.log
 Initial command:
 /home/scr/programs/g09/l1.exe "/home/scr/guest2/Gau-4347.inp" -scrdir="/home/scr/guest2/"
 Entering Link 1 = /home/scr/programs/g09/l1.exe PID=      4348.
  
 Copyright (c) 1988,1990,1992,1993,1995,1998,2003,2009,2013,
            Gaussian, Inc.  All Rights Reserved.
  
 This is part of the Gaussian(R) 09 program.  It is based on
 the Gaussian(R) 03 system (copyright 2003, Gaussian, Inc.),
 the Gaussian(R) 98 system (copyright 1998, Gaussian, Inc.),
 the Gaussian(R) 94 system (copyright 1995, Gaussian, Inc.),
 the Gaussian 92(TM) system (copyright 1992, Gaussian, Inc.),
 the Gaussian 90(TM) system (copyright 1990, Gaussian, Inc.),
 the Gaussian 88(TM) system (copyright 1988, Gaussian, Inc.),
 the Gaussian 86(TM) system (copyright 1986, Carnegie Mellon
 University), and the Gaussian 82(TM) system (copyright 1983,
 Carnegie Mellon University). Gaussian is a federally registered
 trademark of Gaussian, Inc.
  
 This software contains proprietary and confidential information,
 including trade secrets, belonging to Gaussian, Inc.
  
 This software is provided under written license and may be
 used, copied, transmitted, or stored only in accord with that
 written license.
  
 The following legend is applicable only to US Government
 contracts under FAR:
  
                    RESTRICTED RIGHTS LEGEND
  
 Use, reproduction and disclosure by the US Government is
 subject to restrictions as set forth in subparagraphs (a)
 and (c) of the Commercial Computer Software - Restricted
 Rights clause in FAR 52.227-19.
  
 Gaussian, Inc.
 340 Quinnipiac St., Bldg. 40, Wallingford CT 06492
  
  
 ---------------------------------------------------------------
 Warning -- This program may not be used in any manner that
 competes with the business of Gaussian, Inc. or will provide
 assistance to any competitor of Gaussian, Inc.  The licensee
 of this program is prohibited from giving any competitor of
 Gaussian, Inc. access to this program.  By using this program,
 the user acknowledges that Gaussian, Inc. is engaged in the
 business of creating and licensing software in the field of
 computational chemistry and represents and warrants to the
 licensee that it is not a competitor of Gaussian, Inc. and that
 it will not use this program in any manner prohibited above.
 ---------------------------------------------------------------
  

 Cite this work as:
 Gaussian 09, Revision D.01,
 M. J. Frisch, G. W. Trucks, H. B. Schlegel, G. E. Scuseria, 
 M. A. Robb, J. R. Cheeseman, G. Scalmani, V. Barone, B. Mennucci, 
 G. A. Petersson, H. Nakatsuji, M. Caricato, X. Li, H. P. Hratchian, 
 A. F. Izmaylov, J. Bloino, G. Zheng, J. L. Sonnenberg, M. Hada, 
 M. Ehara, K. Toyota, R. Fukuda, J. Hasegawa, M. Ishida, T. Nakajima, 
 Y. Honda, O. Kitao, H. Nakai, T. Vreven, J. A. Montgomery, Jr., 
 J. E. Peralta, F. Ogliaro, M. Bearpark, J. J. Heyd, E. Brothers, 
 K. N. Kudin, V. N. Staroverov, T. Keith, R. Kobayashi, J. Normand, 
 K. Raghavachari, A. Rendell, J. C. Burant, S. S. Iyengar, J. Tomasi, 
 M. Cossi, N. Rega, J. M. Millam, M. Klene, J. E. Knox, J. B. Cross, 
 V. Bakken, C. Adamo, J. Jaramillo, R. Gomperts, R. E. Stratmann, 
 O. Yazyev, A. J. Austin, R. Cammi, C. Pomelli, J. W. Ochterski, 
 R. L. Martin, K. Morokuma, V. G. Zakrzewski, G. A. Voth, 
 P. Salvador, J. J. Dannenberg, S. Dapprich, A. D. Daniels, 
 O. Farkas, J. B. Foresman, J. V. Ortiz, J. Cioslowski, 
 and D. J. Fox, Gaussian, Inc., Wallingford CT, 2013.
 
 ******************************************
 Gaussian 09:  EM64L-G09RevD.01 24-Apr-2013
                 3-May-2023 
 ******************************************
 %mem=30000MB
 %nprocshared=8
 Will use up to    8 processors via shared memory.
 ----------------------------------------
 # opt freq=noraman b3lyp/gen pseudo=read
 ----------------------------------------
 1/14=-1,18=20,19=15,26=3,38=1/1,3;
 2/9=110,12=2,17=6,18=5,40=1/2;
 3/5=7,11=2,16=1,17=8,25=1,30=1,71=1,74=-5/1,2,3;
 4//1;
 5/5=2,38=5/2;
 6/7=2,8=2,9=2,10=2,28=1/1;
 7//1,2,3,16;
 1/14=-1,18=20,19=15,26=3/3(2);
 2/9=110/2;
 99//99;
 2/9=110/2;
 3/5=7,6=1,11=2,16=1,17=8,25=1,30=1,71=1,74=-5,82=7/1,2,3;
 4/5=5,16=3,69=1/1;
 5/5=2,38=5/2;
 7//1,2,3,16;
 1/14=-1,18=20,19=15,26=3/3(-5);
 2/9=110/2;
 6/7=2,8=2,9=2,10=2,19=2,28=1/1;
 99/9=1/99;
 -------------------
 Title Card Required
 -------------------
 Symbolic Z-matrix:
 Charge =  0 Multiplicity = 1
 Au                    2.06977   0.34966  -0.92435 
 P                     3.67039   1.48461   0.53013 
 C                     5.46782   1.29959   0.1327 
 H                     6.01175   1.8964    0.87475 
 H                     5.60899   1.79652  -0.84252 
 C                     3.45153   1.08608   2.31523 
 H                     4.19519   1.66115   2.87863 
 H                     3.67989   0.01555   2.39288 
 C                     3.36937   3.31447   0.35596 
 H                     2.29047   3.47792   0.43831 
 H                     3.61981   3.56501  -0.68218 
 C                     5.98805  -0.13555   0.07802 
 H                     5.81449  -0.66455   1.01882 
 H                     5.4969   -0.7049   -0.70968 
 H                     7.06505  -0.12622  -0.11494 
 C                     4.13564   4.2089    1.33251 
 H                     3.90529   5.26233   1.11675 
 H                     3.85768   4.02239   2.37372 
 H                     5.21912   4.09553   1.25125 
 C                     2.02983   1.36151   2.84202 
 H                     1.28472   0.73224   2.33142 
 H                     1.98484   1.11232   3.90595 
 H                     1.73584   2.40079   2.73035 
 S                     2.84184  -2.02972  -0.93158 
 N                    -4.82776  -0.09223   4.00681 
 C                    -3.96477   0.61918   3.05957 
 C                    -4.59628   0.65717   1.65804 
 O                    -5.11721  -0.36918   1.20251 
 C                    -2.60916  -0.12911   3.03898 
 O                    -1.60379   0.49948   2.25056 
 N                    -4.6268    1.81868   0.93046 
 C                    -4.06007   3.11917   1.25503 
 C                    -2.52608   3.12379   1.36306 
 O                    -1.99034   3.30594   2.46732 
 N                    -1.77549   2.8784    0.26152 
 C                    -2.15685   2.55064  -1.09884 
 C                    -2.71984   1.13051  -1.36764 
 O                    -3.53338   0.99917  -2.28092 
 C                    -0.9312    2.76512  -2.04627 
 S                     0.86847   2.64928  -1.39578 
 N                    -2.16564   0.11196  -0.6794 
 C                    -2.12058  -1.23779  -1.2451 
 C                    -0.68022  -1.69549  -1.58693 
 C                    -2.72615  -2.23675  -0.24259 
 O                    -2.08142  -2.60091   0.74563 
 N                    -3.96753  -2.71488  -0.50259 
 C                    -4.97051  -2.12744  -1.37105 
 C                    -6.34347  -2.43353  -0.81913 
 O                    -6.56394  -3.19034   0.09952 
 O                    -7.30096  -1.7925   -1.50572 
 H                    -2.28117  -0.22231   4.08808 
 H                    -2.74253  -1.13131   2.62531 
 H                    -1.47065   1.40092   2.59158 
 H                    -3.78899   1.62883   3.44454 
 H                    -5.15781  -0.93023   3.54401 
 H                    -5.66135   0.47175   4.19808 
 H                    -4.43468   3.49493   2.21589 
 H                    -4.38902   3.81709   0.47645 
 H                    -5.02283   1.68686   0.00704 
 H                    -0.92446   3.84914  -2.31439 
 H                    -1.07231   2.17496  -2.97218 
 H                    -2.94276   3.23458  -1.45656 
 H                    -0.76955   2.86674   0.4225 
 H                    -0.74691  -2.65168  -2.13973 
 H                    -0.14108  -1.91566  -0.66894 
 H                    -2.72154  -1.18552  -2.14983 
 H                    -1.67547   0.2913    0.20403 
 H                    -4.91998  -2.52937  -2.39065 
 H                    -4.85827  -1.04284  -1.45566 
 H                    -4.36171  -3.27978   0.24522 
 H                    -8.15724  -2.06144  -1.10091 
 Se                    0.32213  -0.34471  -2.61401 
 C                     3.29765  -2.74315   0.61837 
 S                     3.3805   -4.56996   0.62775 
 C                     3.77344  -3.07472   2.81364 
 C                     4.20101  -4.45683   2.26748 
 H                     4.53013  -2.68002   3.50411 
 H                     5.28676  -4.52044   2.14218 
 H                     3.87073  -5.28288   2.90709 
 H                     2.83793  -3.16632   3.37698 
 N                     3.5639   -2.14383   1.71379 
 

 GradGradGradGradGradGradGradGradGradGradGradGradGradGradGradGradGradGrad
 Berny optimization.
 Initialization pass.
                           ----------------------------
                           !    Initial Parameters    !
                           ! (Angstroms and Degrees)  !
 --------------------------                            --------------------------
 ! Name  Definition              Value          Derivative Info.                !
 --------------------------------------------------------------------------------
 ! R1    R(1,2)                  2.4425         estimate D2E/DX2                !
 ! R2    R(1,24)                 2.5015         estimate D2E/DX2                !
 ! R3    R(1,40)                 2.637          estimate D2E/DX2                !
 ! R4    R(1,72)                 2.5281         estimate D2E/DX2                !
 ! R5    R(2,3)                  1.8501         estimate D2E/DX2                !
 ! R6    R(2,6)                  1.8421         estimate D2E/DX2                !
 ! R7    R(2,9)                  1.8626         estimate D2E/DX2                !
 ! R8    R(3,4)                  1.0967         estimate D2E/DX2                !
 ! R9    R(3,5)                  1.1036         estimate D2E/DX2                !
 ! R10   R(3,12)                 1.5275         estimate D2E/DX2                !
 ! R11   R(6,7)                  1.096          estimate D2E/DX2                !
 ! R12   R(6,8)                  1.0974         estimate D2E/DX2                !
 ! R13   R(6,20)                 1.541          estimate D2E/DX2                !
 ! R14   R(9,10)                 1.0943         estimate D2E/DX2                !
 ! R15   R(9,11)                 1.0969         estimate D2E/DX2                !
 ! R16   R(9,16)                 1.53           estimate D2E/DX2                !
 ! R17   R(12,13)                1.0932         estimate D2E/DX2                !
 ! R18   R(12,14)                1.089          estimate D2E/DX2                !
 ! R19   R(12,15)                1.0942         estimate D2E/DX2                !
 ! R20   R(16,17)                1.0997         estimate D2E/DX2                !
 ! R21   R(16,18)                1.0937         estimate D2E/DX2                !
 ! R22   R(16,19)                1.0924         estimate D2E/DX2                !
 ! R23   R(20,21)                1.1009         estimate D2E/DX2                !
 ! R24   R(20,22)                1.0937         estimate D2E/DX2                !
 ! R25   R(20,23)                1.0858         estimate D2E/DX2                !
 ! R26   R(24,73)                1.7661         estimate D2E/DX2                !
 ! R27   R(25,26)                1.4656         estimate D2E/DX2                !
 ! R28   R(25,55)                1.0126         estimate D2E/DX2                !
 ! R29   R(25,56)                1.0245         estimate D2E/DX2                !
 ! R30   R(26,27)                1.5377         estimate D2E/DX2                !
 ! R31   R(26,29)                1.5486         estimate D2E/DX2                !
 ! R32   R(26,54)                1.0948         estimate D2E/DX2                !
 ! R33   R(27,28)                1.2378         estimate D2E/DX2                !
 ! R34   R(27,31)                1.3709         estimate D2E/DX2                !
 ! R35   R(29,30)                1.4239         estimate D2E/DX2                !
 ! R36   R(29,51)                1.1031         estimate D2E/DX2                !
 ! R37   R(29,52)                1.0924         estimate D2E/DX2                !
 ! R38   R(30,53)                0.9729         estimate D2E/DX2                !
 ! R39   R(31,32)                1.4553         estimate D2E/DX2                !
 ! R40   R(31,59)                1.0134         estimate D2E/DX2                !
 ! R41   R(32,33)                1.5378         estimate D2E/DX2                !
 ! R42   R(32,57)                1.0976         estimate D2E/DX2                !
 ! R43   R(32,58)                1.0961         estimate D2E/DX2                !
 ! R44   R(33,34)                1.2408         estimate D2E/DX2                !
 ! R45   R(33,35)                1.3554         estimate D2E/DX2                !
 ! R46   R(35,36)                1.4503         estimate D2E/DX2                !
 ! R47   R(35,63)                1.0188         estimate D2E/DX2                !
 ! R48   R(36,37)                1.5511         estimate D2E/DX2                !
 ! R49   R(36,39)                1.5639         estimate D2E/DX2                !
 ! R50   R(36,62)                1.1015         estimate D2E/DX2                !
 ! R51   R(37,38)                1.2301         estimate D2E/DX2                !
 ! R52   R(37,41)                1.3484         estimate D2E/DX2                !
 ! R53   R(39,40)                1.9171         estimate D2E/DX2                !
 ! R54   R(39,60)                1.1167         estimate D2E/DX2                !
 ! R55   R(39,61)                1.107          estimate D2E/DX2                !
 ! R56   R(41,42)                1.4642         estimate D2E/DX2                !
 ! R57   R(41,67)                1.0261         estimate D2E/DX2                !
 ! R58   R(42,43)                1.5495         estimate D2E/DX2                !
 ! R59   R(42,44)                1.5394         estimate D2E/DX2                !
 ! R60   R(42,66)                1.0874         estimate D2E/DX2                !
 ! R61   R(43,64)                1.1065         estimate D2E/DX2                !
 ! R62   R(43,65)                1.0871         estimate D2E/DX2                !
 ! R63   R(43,72)                1.9708         estimate D2E/DX2                !
 ! R64   R(44,45)                1.2349         estimate D2E/DX2                !
 ! R65   R(44,46)                1.3554         estimate D2E/DX2                !
 ! R66   R(46,47)                1.451          estimate D2E/DX2                !
 ! R67   R(46,70)                1.0167         estimate D2E/DX2                !
 ! R68   R(47,48)                1.5111         estimate D2E/DX2                !
 ! R69   R(47,68)                1.0971         estimate D2E/DX2                !
 ! R70   R(47,69)                1.0937         estimate D2E/DX2                !
 ! R71   R(48,49)                1.2105         estimate D2E/DX2                !
 ! R72   R(48,50)                1.3413         estimate D2E/DX2                !
 ! R73   R(50,71)                0.9846         estimate D2E/DX2                !
 ! R74   R(73,74)                1.8287         estimate D2E/DX2                !
 ! R75   R(73,81)                1.2767         estimate D2E/DX2                !
 ! R76   R(74,76)                1.837          estimate D2E/DX2                !
 ! R77   R(75,76)                1.5464         estimate D2E/DX2                !
 ! R78   R(75,77)                1.0978         estimate D2E/DX2                !
 ! R79   R(75,80)                1.0959         estimate D2E/DX2                !
 ! R80   R(75,81)                1.4561         estimate D2E/DX2                !
 ! R81   R(76,78)                1.0948         estimate D2E/DX2                !
 ! R82   R(76,79)                1.0957         estimate D2E/DX2                !
 ! A1    A(2,1,24)             103.972          estimate D2E/DX2                !
 ! A2    A(2,1,40)              89.9871         estimate D2E/DX2                !
 ! A3    A(24,1,72)             87.1443         estimate D2E/DX2                !
 ! A4    A(40,1,72)             78.7619         estimate D2E/DX2                !
 ! A5    A(1,2,3)              117.5338         estimate D2E/DX2                !
 ! A6    A(1,2,6)              113.4957         estimate D2E/DX2                !
 ! A7    A(1,2,9)              107.152          estimate D2E/DX2                !
 ! A8    A(3,2,6)              107.5755         estimate D2E/DX2                !
 ! A9    A(3,2,9)              103.6017         estimate D2E/DX2                !
 ! A10   A(6,2,9)              106.4968         estimate D2E/DX2                !
 ! A11   A(2,3,4)              106.3842         estimate D2E/DX2                !
 ! A12   A(2,3,5)              105.6089         estimate D2E/DX2                !
 ! A13   A(2,3,12)             115.6278         estimate D2E/DX2                !
 ! A14   A(4,3,5)              106.8243         estimate D2E/DX2                !
 ! A15   A(4,3,12)             111.5064         estimate D2E/DX2                !
 ! A16   A(5,3,12)             110.3568         estimate D2E/DX2                !
 ! A17   A(2,6,7)              107.6996         estimate D2E/DX2                !
 ! A18   A(2,6,8)              104.7679         estimate D2E/DX2                !
 ! A19   A(2,6,20)             113.7173         estimate D2E/DX2                !
 ! A20   A(7,6,8)              109.5304         estimate D2E/DX2                !
 ! A21   A(7,6,20)             110.8851         estimate D2E/DX2                !
 ! A22   A(8,6,20)             110.0086         estimate D2E/DX2                !
 ! A23   A(2,9,10)             107.3999         estimate D2E/DX2                !
 ! A24   A(2,9,11)             106.021          estimate D2E/DX2                !
 ! A25   A(2,9,16)             115.7021         estimate D2E/DX2                !
 ! A26   A(10,9,11)            105.2009         estimate D2E/DX2                !
 ! A27   A(10,9,16)            111.0036         estimate D2E/DX2                !
 ! A28   A(11,9,16)            110.8675         estimate D2E/DX2                !
 ! A29   A(3,12,13)            111.7016         estimate D2E/DX2                !
 ! A30   A(3,12,14)            111.3159         estimate D2E/DX2                !
 ! A31   A(3,12,15)            109.4826         estimate D2E/DX2                !
 ! A32   A(13,12,14)           107.3319         estimate D2E/DX2                !
 ! A33   A(13,12,15)           108.1892         estimate D2E/DX2                !
 ! A34   A(14,12,15)           108.7133         estimate D2E/DX2                !
 ! A35   A(9,16,17)            109.2608         estimate D2E/DX2                !
 ! A36   A(9,16,18)            112.3751         estimate D2E/DX2                !
 ! A37   A(9,16,19)            112.8666         estimate D2E/DX2                !
 ! A38   A(17,16,18)           107.2726         estimate D2E/DX2                !
 ! A39   A(17,16,19)           107.0115         estimate D2E/DX2                !
 ! A40   A(18,16,19)           107.7695         estimate D2E/DX2                !
 ! A41   A(6,20,21)            111.3296         estimate D2E/DX2                !
 ! A42   A(6,20,22)            109.2563         estimate D2E/DX2                !
 ! A43   A(6,20,23)            112.6883         estimate D2E/DX2                !
 ! A44   A(21,20,22)           107.0452         estimate D2E/DX2                !
 ! A45   A(21,20,23)           108.4307         estimate D2E/DX2                !
 ! A46   A(22,20,23)           107.8782         estimate D2E/DX2                !
 ! A47   A(1,24,73)            117.4748         estimate D2E/DX2                !
 ! A48   A(26,25,55)           107.3514         estimate D2E/DX2                !
 ! A49   A(26,25,56)           109.4243         estimate D2E/DX2                !
 ! A50   A(55,25,56)           106.0034         estimate D2E/DX2                !
 ! A51   A(25,26,27)           111.0536         estimate D2E/DX2                !
 ! A52   A(25,26,29)           106.8277         estimate D2E/DX2                !
 ! A53   A(25,26,54)           108.3568         estimate D2E/DX2                !
 ! A54   A(27,26,29)           111.059          estimate D2E/DX2                !
 ! A55   A(27,26,54)           111.3251         estimate D2E/DX2                !
 ! A56   A(29,26,54)           108.0451         estimate D2E/DX2                !
 ! A57   A(26,27,28)           119.1931         estimate D2E/DX2                !
 ! A58   A(26,27,31)           120.9176         estimate D2E/DX2                !
 ! A59   A(28,27,31)           119.8554         estimate D2E/DX2                !
 ! A60   A(26,29,30)           114.3396         estimate D2E/DX2                !
 ! A61   A(26,29,51)           106.7656         estimate D2E/DX2                !
 ! A62   A(26,29,52)           109.9672         estimate D2E/DX2                !
 ! A63   A(30,29,51)           110.729          estimate D2E/DX2                !
 ! A64   A(30,29,52)           106.3514         estimate D2E/DX2                !
 ! A65   A(51,29,52)           108.598          estimate D2E/DX2                !
 ! A66   A(29,30,53)           108.1532         estimate D2E/DX2                !
 ! A67   A(27,31,32)           129.0578         estimate D2E/DX2                !
 ! A68   A(27,31,59)           112.4643         estimate D2E/DX2                !
 ! A69   A(32,31,59)           118.1426         estimate D2E/DX2                !
 ! A70   A(31,32,33)           114.0053         estimate D2E/DX2                !
 ! A71   A(31,32,57)           111.6085         estimate D2E/DX2                !
 ! A72   A(31,32,58)           107.0807         estimate D2E/DX2                !
 ! A73   A(33,32,57)           106.1355         estimate D2E/DX2                !
 ! A74   A(33,32,58)           110.3249         estimate D2E/DX2                !
 ! A75   A(57,32,58)           107.542          estimate D2E/DX2                !
 ! A76   A(32,33,34)           119.582          estimate D2E/DX2                !
 ! A77   A(32,33,35)           119.6552         estimate D2E/DX2                !
 ! A78   A(34,33,35)           120.7146         estimate D2E/DX2                !
 ! A79   A(33,35,36)           131.1184         estimate D2E/DX2                !
 ! A80   A(33,35,63)           114.8629         estimate D2E/DX2                !
 ! A81   A(36,35,63)           113.9068         estimate D2E/DX2                !
 ! A82   A(35,36,37)           117.703          estimate D2E/DX2                !
 ! A83   A(35,36,39)           109.3393         estimate D2E/DX2                !
 ! A84   A(35,36,62)           110.6029         estimate D2E/DX2                !
 ! A85   A(37,36,39)           107.7598         estimate D2E/DX2                !
 ! A86   A(37,36,62)           104.6688         estimate D2E/DX2                !
 ! A87   A(39,36,62)           106.0966         estimate D2E/DX2                !
 ! A88   A(36,37,38)           117.8045         estimate D2E/DX2                !
 ! A89   A(36,37,41)           116.9975         estimate D2E/DX2                !
 ! A90   A(38,37,41)           124.7573         estimate D2E/DX2                !
 ! A91   A(36,39,40)           121.4563         estimate D2E/DX2                !
 ! A92   A(36,39,60)           106.458          estimate D2E/DX2                !
 ! A93   A(36,39,61)           109.4925         estimate D2E/DX2                !
 ! A94   A(40,39,60)            97.7274         estimate D2E/DX2                !
 ! A95   A(40,39,61)           111.7922         estimate D2E/DX2                !
 ! A96   A(60,39,61)           108.5085         estimate D2E/DX2                !
 ! A97   A(1,40,39)            122.7522         estimate D2E/DX2                !
 ! A98   A(37,41,42)           120.7818         estimate D2E/DX2                !
 ! A99   A(37,41,67)           120.2481         estimate D2E/DX2                !
 ! A100  A(42,41,67)           118.6239         estimate D2E/DX2                !
 ! A101  A(41,42,43)           112.7144         estimate D2E/DX2                !
 ! A102  A(41,42,44)           109.5419         estimate D2E/DX2                !
 ! A103  A(41,42,66)           105.0784         estimate D2E/DX2                !
 ! A104  A(43,42,44)           108.5213         estimate D2E/DX2                !
 ! A105  A(43,42,66)           110.1444         estimate D2E/DX2                !
 ! A106  A(44,42,66)           110.8317         estimate D2E/DX2                !
 ! A107  A(42,43,64)           108.0255         estimate D2E/DX2                !
 ! A108  A(42,43,65)           109.5445         estimate D2E/DX2                !
 ! A109  A(42,43,72)           112.6609         estimate D2E/DX2                !
 ! A110  A(64,43,65)           106.066          estimate D2E/DX2                !
 ! A111  A(64,43,72)           111.2588         estimate D2E/DX2                !
 ! A112  A(65,43,72)           109.0649         estimate D2E/DX2                !
 ! A113  A(42,44,45)           120.4742         estimate D2E/DX2                !
 ! A114  A(42,44,46)           117.6635         estimate D2E/DX2                !
 ! A115  A(45,44,46)           121.8472         estimate D2E/DX2                !
 ! A116  A(44,46,47)           127.2346         estimate D2E/DX2                !
 ! A117  A(44,46,70)           114.2036         estimate D2E/DX2                !
 ! A118  A(47,46,70)           113.4024         estimate D2E/DX2                !
 ! A119  A(46,47,48)           109.1139         estimate D2E/DX2                !
 ! A120  A(46,47,68)           112.0914         estimate D2E/DX2                !
 ! A121  A(46,47,69)           112.1399         estimate D2E/DX2                !
 ! A122  A(48,47,68)           107.8838         estimate D2E/DX2                !
 ! A123  A(48,47,69)           108.8075         estimate D2E/DX2                !
 ! A124  A(68,47,69)           106.6595         estimate D2E/DX2                !
 ! A125  A(47,48,49)           124.7027         estimate D2E/DX2                !
 ! A126  A(47,48,50)           111.3971         estimate D2E/DX2                !
 ! A127  A(49,48,50)           123.8662         estimate D2E/DX2                !
 ! A128  A(48,50,71)           106.2497         estimate D2E/DX2                !
 ! A129  A(1,72,43)            101.0418         estimate D2E/DX2                !
 ! A130  A(24,73,74)           114.8178         estimate D2E/DX2                !
 ! A131  A(24,73,81)           128.1106         estimate D2E/DX2                !
 ! A132  A(74,73,81)           117.0705         estimate D2E/DX2                !
 ! A133  A(73,74,76)            87.8964         estimate D2E/DX2                !
 ! A134  A(76,75,77)           110.6654         estimate D2E/DX2                !
 ! A135  A(76,75,80)           110.0524         estimate D2E/DX2                !
 ! A136  A(76,75,81)           110.1459         estimate D2E/DX2                !
 ! A137  A(77,75,80)           107.1668         estimate D2E/DX2                !
 ! A138  A(77,75,81)           110.147          estimate D2E/DX2                !
 ! A139  A(80,75,81)           108.5953         estimate D2E/DX2                !
 ! A140  A(74,76,75)           104.2878         estimate D2E/DX2                !
 ! A141  A(74,76,78)           109.7077         estimate D2E/DX2                !
 ! A142  A(74,76,79)           109.8761         estimate D2E/DX2                !
 ! A143  A(75,76,78)           111.5036         estimate D2E/DX2                !
 ! A144  A(75,76,79)           112.6003         estimate D2E/DX2                !
 ! A145  A(78,76,79)           108.7802         estimate D2E/DX2                !
 ! A146  A(73,81,75)           112.2093         estimate D2E/DX2                !
 ! A147  L(2,1,72,40,-1)       168.749          estimate D2E/DX2                !
 ! A148  L(24,1,40,72,-1)      165.9062         estimate D2E/DX2                !
 ! A149  L(2,1,72,40,-2)       176.2186         estimate D2E/DX2                !
 ! A150  L(24,1,40,72,-2)      181.4677         estimate D2E/DX2                !
 ! D1    D(24,1,2,3)            53.8831         estimate D2E/DX2                !
 ! D2    D(24,1,2,6)           -72.8399         estimate D2E/DX2                !
 ! D3    D(24,1,2,9)           169.8881         estimate D2E/DX2                !
 ! D4    D(40,1,2,3)          -123.6611         estimate D2E/DX2                !
 ! D5    D(40,1,2,6)           109.6159         estimate D2E/DX2                !
 ! D6    D(40,1,2,9)            -7.6561         estimate D2E/DX2                !
 ! D7    D(3,2,72,43)          118.9675         estimate D2E/DX2                !
 ! D8    D(6,2,72,43)          -13.1941         estimate D2E/DX2                !
 ! D9    D(9,2,72,43)         -128.4595         estimate D2E/DX2                !
 ! D10   D(2,1,24,73)           44.3716         estimate D2E/DX2                !
 ! D11   D(72,1,24,73)        -139.8191         estimate D2E/DX2                !
 ! D12   D(73,24,40,39)       -115.1547         estimate D2E/DX2                !
 ! D13   D(2,1,40,39)         -159.798          estimate D2E/DX2                !
 ! D14   D(72,1,40,39)          23.9833         estimate D2E/DX2                !
 ! D15   D(24,1,72,43)          60.4198         estimate D2E/DX2                !
 ! D16   D(40,1,72,43)        -121.0479         estimate D2E/DX2                !
 ! D17   D(1,2,3,4)            178.5402         estimate D2E/DX2                !
 ! D18   D(1,2,3,5)             65.2504         estimate D2E/DX2                !
 ! D19   D(1,2,3,12)           -57.0673         estimate D2E/DX2                !
 ! D20   D(6,2,3,4)            -51.9103         estimate D2E/DX2                !
 ! D21   D(6,2,3,5)           -165.2            estimate D2E/DX2                !
 ! D22   D(6,2,3,12)            72.4823         estimate D2E/DX2                !
 ! D23   D(9,2,3,4)             60.6156         estimate D2E/DX2                !
 ! D24   D(9,2,3,5)            -52.6742         estimate D2E/DX2                !
 ! D25   D(9,2,3,12)          -174.9918         estimate D2E/DX2                !
 ! D26   D(1,2,6,7)           -178.5646         estimate D2E/DX2                !
 ! D27   D(1,2,6,8)             64.8819         estimate D2E/DX2                !
 ! D28   D(1,2,6,20)           -55.2707         estimate D2E/DX2                !
 ! D29   D(3,2,6,7)             49.6422         estimate D2E/DX2                !
 ! D30   D(3,2,6,8)            -66.9113         estimate D2E/DX2                !
 ! D31   D(3,2,6,20)           172.936          estimate D2E/DX2                !
 ! D32   D(9,2,6,7)            -60.9114         estimate D2E/DX2                !
 ! D33   D(9,2,6,8)           -177.4649         estimate D2E/DX2                !
 ! D34   D(9,2,6,20)            62.3825         estimate D2E/DX2                !
 ! D35   D(1,2,9,10)            47.1527         estimate D2E/DX2                !
 ! D36   D(1,2,9,11)           -64.9251         estimate D2E/DX2                !
 ! D37   D(1,2,9,16)           171.7422         estimate D2E/DX2                !
 ! D38   D(3,2,9,10)           172.0722         estimate D2E/DX2                !
 ! D39   D(3,2,9,11)            59.9944         estimate D2E/DX2                !
 ! D40   D(3,2,9,16)           -63.3384         estimate D2E/DX2                !
 ! D41   D(6,2,9,10)           -74.6201         estimate D2E/DX2                !
 ! D42   D(6,2,9,11)           173.3021         estimate D2E/DX2                !
 ! D43   D(6,2,9,16)            49.9694         estimate D2E/DX2                !
 ! D44   D(2,3,12,13)          -57.4558         estimate D2E/DX2                !
 ! D45   D(2,3,12,14)           62.5092         estimate D2E/DX2                !
 ! D46   D(2,3,12,15)         -177.2686         estimate D2E/DX2                !
 ! D47   D(4,3,12,13)           64.2322         estimate D2E/DX2                !
 ! D48   D(4,3,12,14)         -175.8028         estimate D2E/DX2                !
 ! D49   D(4,3,12,15)          -55.5807         estimate D2E/DX2                !
 ! D50   D(5,3,12,13)         -177.2113         estimate D2E/DX2                !
 ! D51   D(5,3,12,14)          -57.2463         estimate D2E/DX2                !
 ! D52   D(5,3,12,15)           62.9759         estimate D2E/DX2                !
 ! D53   D(2,6,20,21)           62.6596         estimate D2E/DX2                !
 ! D54   D(2,6,20,22)         -179.3231         estimate D2E/DX2                !
 ! D55   D(2,6,20,23)          -59.4216         estimate D2E/DX2                !
 ! D56   D(7,6,20,21)         -175.8029         estimate D2E/DX2                !
 ! D57   D(7,6,20,22)          -57.7855         estimate D2E/DX2                !
 ! D58   D(7,6,20,23)           62.116          estimate D2E/DX2                !
 ! D59   D(8,6,20,21)          -54.4878         estimate D2E/DX2                !
 ! D60   D(8,6,20,22)           63.5296         estimate D2E/DX2                !
 ! D61   D(8,6,20,23)         -176.5689         estimate D2E/DX2                !
 ! D62   D(2,9,16,17)          178.2328         estimate D2E/DX2                !
 ! D63   D(2,9,16,18)          -62.8218         estimate D2E/DX2                !
 ! D64   D(2,9,16,19)           59.3051         estimate D2E/DX2                !
 ! D65   D(10,9,16,17)         -59.0639         estimate D2E/DX2                !
 ! D66   D(10,9,16,18)          59.8815         estimate D2E/DX2                !
 ! D67   D(10,9,16,19)        -177.9916         estimate D2E/DX2                !
 ! D68   D(11,9,16,17)          57.4838         estimate D2E/DX2                !
 ! D69   D(11,9,16,18)         176.4292         estimate D2E/DX2                !
 ! D70   D(11,9,16,19)         -61.4439         estimate D2E/DX2                !
 ! D71   D(1,24,73,74)         163.1011         estimate D2E/DX2                !
 ! D72   D(1,24,73,81)         -16.4919         estimate D2E/DX2                !
 ! D73   D(55,25,26,27)         44.337          estimate D2E/DX2                !
 ! D74   D(55,25,26,29)        -76.9067         estimate D2E/DX2                !
 ! D75   D(55,25,26,54)        166.9045         estimate D2E/DX2                !
 ! D76   D(56,25,26,27)        -70.2736         estimate D2E/DX2                !
 ! D77   D(56,25,26,29)        168.4826         estimate D2E/DX2                !
 ! D78   D(56,25,26,54)         52.2938         estimate D2E/DX2                !
 ! D79   D(25,26,27,28)        -43.8396         estimate D2E/DX2                !
 ! D80   D(25,26,27,31)        134.0398         estimate D2E/DX2                !
 ! D81   D(29,26,27,28)         74.8864         estimate D2E/DX2                !
 ! D82   D(29,26,27,31)       -107.2342         estimate D2E/DX2                !
 ! D83   D(54,26,27,28)       -164.6727         estimate D2E/DX2                !
 ! D84   D(54,26,27,31)         13.2067         estimate D2E/DX2                !
 ! D85   D(25,26,29,30)       -174.8323         estimate D2E/DX2                !
 ! D86   D(25,26,29,51)        -52.0124         estimate D2E/DX2                !
 ! D87   D(25,26,29,52)         65.623          estimate D2E/DX2                !
 ! D88   D(27,26,29,30)         63.9274         estimate D2E/DX2                !
 ! D89   D(27,26,29,51)       -173.2527         estimate D2E/DX2                !
 ! D90   D(27,26,29,52)        -55.6173         estimate D2E/DX2                !
 ! D91   D(54,26,29,30)        -58.436          estimate D2E/DX2                !
 ! D92   D(54,26,29,51)         64.3838         estimate D2E/DX2                !
 ! D93   D(54,26,29,52)       -177.9807         estimate D2E/DX2                !
 ! D94   D(26,27,31,32)          3.5705         estimate D2E/DX2                !
 ! D95   D(26,27,31,59)        176.7018         estimate D2E/DX2                !
 ! D96   D(28,27,31,32)       -178.5641         estimate D2E/DX2                !
 ! D97   D(28,27,31,59)         -5.4327         estimate D2E/DX2                !
 ! D98   D(26,29,30,53)         57.829          estimate D2E/DX2                !
 ! D99   D(51,29,30,53)        -62.815          estimate D2E/DX2                !
 ! D100  D(52,29,30,53)        179.3835         estimate D2E/DX2                !
 ! D101  D(27,31,32,33)         63.791          estimate D2E/DX2                !
 ! D102  D(27,31,32,57)        -56.4486         estimate D2E/DX2                !
 ! D103  D(27,31,32,58)       -173.8911         estimate D2E/DX2                !
 ! D104  D(59,31,32,33)       -109.0088         estimate D2E/DX2                !
 ! D105  D(59,31,32,57)        130.7515         estimate D2E/DX2                !
 ! D106  D(59,31,32,58)         13.309          estimate D2E/DX2                !
 ! D107  D(31,32,33,34)       -111.9521         estimate D2E/DX2                !
 ! D108  D(31,32,33,35)         65.5414         estimate D2E/DX2                !
 ! D109  D(57,32,33,34)         11.3122         estimate D2E/DX2                !
 ! D110  D(57,32,33,35)       -171.1943         estimate D2E/DX2                !
 ! D111  D(58,32,33,34)        127.5284         estimate D2E/DX2                !
 ! D112  D(58,32,33,35)        -54.9781         estimate D2E/DX2                !
 ! D113  D(32,33,35,36)         -2.0787         estimate D2E/DX2                !
 ! D114  D(32,33,35,63)       -177.937          estimate D2E/DX2                !
 ! D115  D(34,33,35,36)        175.3858         estimate D2E/DX2                !
 ! D116  D(34,33,35,63)         -0.4724         estimate D2E/DX2                !
 ! D117  D(33,35,36,37)        -72.5408         estimate D2E/DX2                !
 ! D118  D(33,35,36,39)        164.1329         estimate D2E/DX2                !
 ! D119  D(33,35,36,62)         47.6549         estimate D2E/DX2                !
 ! D120  D(63,35,36,37)        103.3487         estimate D2E/DX2                !
 ! D121  D(63,35,36,39)        -19.9776         estimate D2E/DX2                !
 ! D122  D(63,35,36,62)       -136.4556         estimate D2E/DX2                !
 ! D123  D(35,36,37,38)        149.9029         estimate D2E/DX2                !
 ! D124  D(35,36,37,41)        -37.3478         estimate D2E/DX2                !
 ! D125  D(39,36,37,38)        -85.9767         estimate D2E/DX2                !
 ! D126  D(39,36,37,41)         86.7726         estimate D2E/DX2                !
 ! D127  D(62,36,37,38)         26.6535         estimate D2E/DX2                !
 ! D128  D(62,36,37,41)       -160.5972         estimate D2E/DX2                !
 ! D129  D(35,36,39,40)         25.8677         estimate D2E/DX2                !
 ! D130  D(35,36,39,60)        -84.319          estimate D2E/DX2                !
 ! D131  D(35,36,39,61)        158.571          estimate D2E/DX2                !
 ! D132  D(37,36,39,40)       -103.1643         estimate D2E/DX2                !
 ! D133  D(37,36,39,60)        146.649          estimate D2E/DX2                !
 ! D134  D(37,36,39,61)         29.539          estimate D2E/DX2                !
 ! D135  D(62,36,39,40)        145.1707         estimate D2E/DX2                !
 ! D136  D(62,36,39,60)         34.984          estimate D2E/DX2                !
 ! D137  D(62,36,39,61)        -82.1261         estimate D2E/DX2                !
 ! D138  D(36,37,41,42)       -150.6817         estimate D2E/DX2                !
 ! D139  D(36,37,41,67)         22.4701         estimate D2E/DX2                !
 ! D140  D(38,37,41,42)         21.5085         estimate D2E/DX2                !
 ! D141  D(38,37,41,67)       -165.3396         estimate D2E/DX2                !
 ! D142  D(36,39,40,1)          77.6702         estimate D2E/DX2                !
 ! D143  D(60,39,40,1)        -167.6104         estimate D2E/DX2                !
 ! D144  D(61,39,40,1)         -54.0785         estimate D2E/DX2                !
 ! D145  D(37,41,42,43)        111.851          estimate D2E/DX2                !
 ! D146  D(37,41,42,44)       -127.2188         estimate D2E/DX2                !
 ! D147  D(37,41,42,66)         -8.1116         estimate D2E/DX2                !
 ! D148  D(67,41,42,43)        -61.4101         estimate D2E/DX2                !
 ! D149  D(67,41,42,44)         59.5202         estimate D2E/DX2                !
 ! D150  D(67,41,42,66)        178.6273         estimate D2E/DX2                !
 ! D151  D(41,42,43,64)       -171.8435         estimate D2E/DX2                !
 ! D152  D(41,42,43,65)         73.0474         estimate D2E/DX2                !
 ! D153  D(41,42,43,72)        -48.5413         estimate D2E/DX2                !
 ! D154  D(44,42,43,64)         66.6454         estimate D2E/DX2                !
 ! D155  D(44,42,43,65)        -48.4637         estimate D2E/DX2                !
 ! D156  D(44,42,43,72)       -170.0524         estimate D2E/DX2                !
 ! D157  D(66,42,43,64)        -54.8465         estimate D2E/DX2                !
 ! D158  D(66,42,43,65)       -169.9556         estimate D2E/DX2                !
 ! D159  D(66,42,43,72)         68.4557         estimate D2E/DX2                !
 ! D160  D(41,42,44,45)        -76.4047         estimate D2E/DX2                !
 ! D161  D(41,42,44,46)        104.9834         estimate D2E/DX2                !
 ! D162  D(43,42,44,45)         47.033          estimate D2E/DX2                !
 ! D163  D(43,42,44,46)       -131.5789         estimate D2E/DX2                !
 ! D164  D(66,42,44,45)        168.1022         estimate D2E/DX2                !
 ! D165  D(66,42,44,46)        -10.5097         estimate D2E/DX2                !
 ! D166  D(42,43,72,1)         112.0643         estimate D2E/DX2                !
 ! D167  D(64,43,72,1)        -126.4528         estimate D2E/DX2                !
 ! D168  D(65,43,72,1)          -9.7962         estimate D2E/DX2                !
 ! D169  D(42,44,46,47)        -20.2609         estimate D2E/DX2                !
 ! D170  D(42,44,46,70)       -172.9548         estimate D2E/DX2                !
 ! D171  D(45,44,46,47)        161.1475         estimate D2E/DX2                !
 ! D172  D(45,44,46,70)          8.4536         estimate D2E/DX2                !
 ! D173  D(44,46,47,48)       -147.6341         estimate D2E/DX2                !
 ! D174  D(44,46,47,68)         92.9322         estimate D2E/DX2                !
 ! D175  D(44,46,47,69)        -27.0128         estimate D2E/DX2                !
 ! D176  D(70,46,47,48)          5.2415         estimate D2E/DX2                !
 ! D177  D(70,46,47,68)       -114.1922         estimate D2E/DX2                !
 ! D178  D(70,46,47,69)        125.8629         estimate D2E/DX2                !
 ! D179  D(46,47,48,49)         -8.6842         estimate D2E/DX2                !
 ! D180  D(46,47,48,50)        173.3694         estimate D2E/DX2                !
 ! D181  D(68,47,48,49)        113.3255         estimate D2E/DX2                !
 ! D182  D(68,47,48,50)        -64.621          estimate D2E/DX2                !
 ! D183  D(69,47,48,49)       -131.3258         estimate D2E/DX2                !
 ! D184  D(69,47,48,50)         50.7277         estimate D2E/DX2                !
 ! D185  D(47,48,50,71)        178.5954         estimate D2E/DX2                !
 ! D186  D(49,48,50,71)          0.6286         estimate D2E/DX2                !
 ! D187  D(24,73,74,76)        168.6038         estimate D2E/DX2                !
 ! D188  D(81,73,74,76)        -11.7558         estimate D2E/DX2                !
 ! D189  D(24,73,81,75)        174.4427         estimate D2E/DX2                !
 ! D190  D(74,73,81,75)         -5.1424         estimate D2E/DX2                !
 ! D191  D(73,74,76,75)         22.5323         estimate D2E/DX2                !
 ! D192  D(73,74,76,78)        -97.0068         estimate D2E/DX2                !
 ! D193  D(73,74,76,79)        143.4467         estimate D2E/DX2                !
 ! D194  D(77,75,76,74)       -152.5085         estimate D2E/DX2                !
 ! D195  D(77,75,76,78)        -34.1912         estimate D2E/DX2                !
 ! D196  D(77,75,76,79)         88.4113         estimate D2E/DX2                !
 ! D197  D(80,75,76,74)         89.231          estimate D2E/DX2                !
 ! D198  D(80,75,76,78)       -152.4517         estimate D2E/DX2                !
 ! D199  D(80,75,76,79)        -29.8492         estimate D2E/DX2                !
 ! D200  D(81,75,76,74)        -30.4709         estimate D2E/DX2                !
 ! D201  D(81,75,76,78)         87.8464         estimate D2E/DX2                !
 ! D202  D(81,75,76,79)       -149.5511         estimate D2E/DX2                !
 ! D203  D(76,75,81,73)         23.8238         estimate D2E/DX2                !
 ! D204  D(77,75,81,73)        146.1677         estimate D2E/DX2                !
 ! D205  D(80,75,81,73)        -96.7581         estimate D2E/DX2                !
 --------------------------------------------------------------------------------
 Trust Radius=3.00D-01 FncErr=1.00D-07 GrdErr=1.00D-06
 Number of steps in this run=    447 maximum allowed number of steps=    486.
 GradGradGradGradGradGradGradGradGradGradGradGradGradGradGradGradGradGrad

 Stoichiometry    C22H40AuN6O7PS3Se
 Framework group  C1[X(C22H40AuN6O7PS3Se)]
 Deg. of freedom   237
 Full point group                 C1      NOp   1
 Largest Abelian subgroup         C1      NOp   1
 Largest concise Abelian subgroup C1      NOp   1
                         Standard orientation:                         
 ---------------------------------------------------------------------
 Center     Atomic      Atomic             Coordinates (Angstroms)
 Number     Number       Type             X           Y           Z
 ---------------------------------------------------------------------
      1         79           0       -2.070635   -0.295591   -0.930666
      2         15           0       -3.683241   -1.449312    0.495539
      3          6           0       -5.478917   -1.228066    0.108832
      4          1           0       -6.029236   -1.838230    0.835148
      5          1           0       -5.629488   -1.694919   -0.879745
      6          6           0       -3.454296   -1.105029    2.290625
      7          1           0       -4.204470   -1.685581    2.839574
      8          1           0       -3.667482   -0.034089    2.399464
      9          6           0       -3.408242   -3.277444    0.268327
     10          1           0       -2.331525   -3.458149    0.342806
     11          1           0       -3.664796   -3.494713   -0.775794
     12          6           0       -5.979187    0.215136    0.096662
     13          1           0       -5.795870    0.714577    1.051662
     14          1           0       -5.482150    0.799883   -0.675909
     15          1           0       -7.056708    0.226275   -0.093312
     16          6           0       -4.184437   -4.188691    1.221212
     17          1           0       -3.969375   -5.238619    0.974794
     18          1           0       -3.901251   -4.035883    2.266496
     19          1           0       -5.266433   -4.058014    1.146406
     20          6           0       -2.035243   -1.415109    2.805154
     21          1           0       -1.282720   -0.781912    2.310531
     22          1           0       -1.984069   -1.197071    3.875629
     23          1           0       -1.756072   -2.454762    2.663008
     24         16           0       -2.809422    2.093516   -0.867718
     25          7           0        4.844918   -0.090607    3.990778
     26          6           0        3.969677   -0.762606    3.026168
     27          6           0        4.597025   -0.769300    1.622270
     28          8           0        5.131072    0.262317    1.194684
     29          6           0        2.624599    0.004711    3.030922
     30          8           0        1.608543   -0.587066    2.227852
     31          7           0        4.609466   -1.909853    0.861750
     32          6           0        4.025468   -3.211094    1.150739
     33          6           0        2.491842   -3.197504    1.263113
     34          8           0        1.956418   -3.403677    2.363296
     35          7           0        1.741951   -2.910337    0.171231
     36          6           0        2.124383   -2.549165   -1.180331
     37          6           0        2.706461   -1.129884   -1.410148
     38          8           0        3.519430   -0.983806   -2.321697
     39          6           0        0.893450   -2.719442   -2.129885
     40         16           0       -0.902761   -2.597256   -1.471059
     41          7           0        2.168292   -0.123818   -0.691496
     42          6           0        2.140641    1.242035   -1.218318
     43          6           0        0.705946    1.729273   -1.542704
     44          6           0        2.762655    2.203442   -0.189495
     45          8           0        2.125588    2.548125    0.810612
     46          7           0        4.009925    2.671519   -0.439391
     47          6           0        5.002394    2.095264   -1.327211
     48          6           0        6.380894    2.366362   -0.770825
     49          8           0        6.614240    3.093483    0.168392
     50          8           0        7.327585    1.731984   -1.478241
     51          1           0        2.300612    0.072438    4.083220
     52          1           0        2.770891    1.016377    2.645630
     53          1           0        1.463695   -1.495951    2.543397
     54          1           0        3.780795   -1.780306    3.382679
     55          1           0        5.185466    0.755608    3.551111
     56          1           0        5.671039   -0.671339    4.163425
     57          1           0        4.397233   -3.619322    2.099386
     58          1           0        4.342652   -3.890982    0.351603
     59          1           0        5.004951   -1.757213   -0.058693
     60          1           0        0.870892   -3.795161   -2.428814
     61          1           0        1.040433   -2.105085   -3.038989
     62          1           0        2.899749   -3.233452   -1.559738
     63          1           0        0.736681   -2.889309    0.335445
     64          1           0        0.784581    2.699849   -2.068186
     65          1           0        0.172272    1.930587   -0.617225
     66          1           0        2.738513    1.207304   -2.125936
     67          1           0        1.677920   -0.321506    0.187894
     68          1           0        4.954878    2.526826   -2.334771
     69          1           0        4.874804    1.015188   -1.442410
     70          1           0        4.413855    3.209292    0.323070
     71          1           0        8.188568    1.977330   -1.068446
     72         34           0       -0.317776    0.422440   -2.604955
     73          6           0       -3.251280    2.768622    0.703288
     74         16           0       -3.308583    4.595391    0.765041
     75          6           0       -3.716807    3.043899    2.908513
     76          6           0       -4.126420    4.446853    2.403280
     77          1           0       -4.477171    2.640170    3.589665
     78          1           0       -5.211487    4.529092    2.283047
     79          1           0       -3.783014    5.249623    3.065231
     80          1           0       -2.778669    3.106370    3.471484
     81          7           0       -3.523079    2.141998    1.781935
 ---------------------------------------------------------------------
 Rotational constants (GHZ):      0.0813676      0.0413383      0.0373053
 General basis read from cards:  (5D, 7F)
 ======================================================================================================
                                       Pseudopotential Parameters
 ======================================================================================================
  Center     Atomic      Valence      Angular      Power
  Number     Number     Electrons     Momentum     of R      Exponent        Coefficient   SO-Coeffient
 ======================================================================================================
    1         79           19
                                      G and up 
                                                     1      622.6287956      -60.00000000    0.00000000
                                                     2      136.2843607     -555.52923120    0.00000000
                                                     2       33.1549781     -168.00197850    0.00000000
                                                     2        9.9894895      -63.03998750    0.00000000
                                                     2        3.0481312       -4.25166810    0.00000000
                                      S - G
                                                     0      194.7374304        3.00000000    0.00000000
                                                     1      351.5327447       38.60208800    0.00000000
                                                     2      122.3270402      864.83707270    0.00000000
                                                     2       32.0914617      374.99355200    0.00000000
                                                     2        5.2451812      289.79101000    0.00000000
                                                     2        4.4916223     -152.45327730    0.00000000
                                      P - G
                                                     0      420.6158801        2.00000000    0.00000000
                                                     1      109.4417815       73.88856250    0.00000000
                                                     2       34.1714280      326.67298720    0.00000000
                                                     2        5.9879750      126.58145910    0.00000000
                                      D - G
                                                     0      219.2666158        3.00000000    0.00000000
                                                     1      122.7297786       55.67931490    0.00000000
                                                     2       63.1063369      449.19873350    0.00000000
                                                     2       18.3684520      215.02690910    0.00000000
                                                     2        4.4972844       64.08409950    0.00000000
                                      F - G
                                                     0      108.5506037        4.00000000    0.00000000
                                                     1       56.4795527       51.80653350    0.00000000
                                                     2       29.2069159      231.21831130    0.00000000
                                                     2        9.5440543      119.00473860    0.00000000
                                                     2        2.8965118       15.34241880    0.00000000
    2         15
                                   No pseudopotential on this center.
    3          6
                                   No pseudopotential on this center.
    4          1
                                   No pseudopotential on this center.
    5          1
                                   No pseudopotential on this center.
    6          6
                                   No pseudopotential on this center.
    7          1
                                   No pseudopotential on this center.
    8          1
                                   No pseudopotential on this center.
    9          6
                                   No pseudopotential on this center.
   10          1
                                   No pseudopotential on this center.
   11          1
                                   No pseudopotential on this center.
   12          6
                                   No pseudopotential on this center.
   13          1
                                   No pseudopotential on this center.
   14          1
                                   No pseudopotential on this center.
   15          1
                                   No pseudopotential on this center.
   16          6
                                   No pseudopotential on this center.
   17          1
                                   No pseudopotential on this center.
   18          1
                                   No pseudopotential on this center.
   19          1
                                   No pseudopotential on this center.
   20          6
                                   No pseudopotential on this center.
   21          1
                                   No pseudopotential on this center.
   22          1
                                   No pseudopotential on this center.
   23          1
                                   No pseudopotential on this center.
   24         16
                                   No pseudopotential on this center.
   25          7
                                   No pseudopotential on this center.
   26          6
                                   No pseudopotential on this center.
   27          6
                                   No pseudopotential on this center.
   28          8
                                   No pseudopotential on this center.
   29          6
                                   No pseudopotential on this center.
   30          8
                                   No pseudopotential on this center.
   31          7
                                   No pseudopotential on this center.
   32          6
                                   No pseudopotential on this center.
   33          6
                                   No pseudopotential on this center.
   34          8
                                   No pseudopotential on this center.
   35          7
                                   No pseudopotential on this center.
   36          6
                                   No pseudopotential on this center.
   37          6
                                   No pseudopotential on this center.
   38          8
                                   No pseudopotential on this center.
   39          6
                                   No pseudopotential on this center.
   40         16
                                   No pseudopotential on this center.
   41          7
                                   No pseudopotential on this center.
   42          6
                                   No pseudopotential on this center.
   43          6
                                   No pseudopotential on this center.
   44          6
                                   No pseudopotential on this center.
   45          8
                                   No pseudopotential on this center.
   46          7
                                   No pseudopotential on this center.
   47          6
                                   No pseudopotential on this center.
   48          6
                                   No pseudopotential on this center.
   49          8
                                   No pseudopotential on this center.
   50          8
                                   No pseudopotential on this center.
   51          1
                                   No pseudopotential on this center.
   52          1
                                   No pseudopotential on this center.
   53          1
                                   No pseudopotential on this center.
   54          1
                                   No pseudopotential on this center.
   55          1
                                   No pseudopotential on this center.
   56          1
                                   No pseudopotential on this center.
   57          1
                                   No pseudopotential on this center.
   58          1
                                   No pseudopotential on this center.
   59          1
                                   No pseudopotential on this center.
   60          1
                                   No pseudopotential on this center.
   61          1
                                   No pseudopotential on this center.
   62          1
                                   No pseudopotential on this center.
   63          1
                                   No pseudopotential on this center.
   64          1
                                   No pseudopotential on this center.
   65          1
                                   No pseudopotential on this center.
   66          1
                                   No pseudopotential on this center.
   67          1
                                   No pseudopotential on this center.
   68          1
                                   No pseudopotential on this center.
   69          1
                                   No pseudopotential on this center.
   70          1
                                   No pseudopotential on this center.
   71          1
                                   No pseudopotential on this center.
   72         34
                                   No pseudopotential on this center.
   73          6
                                   No pseudopotential on this center.
   74         16
                                   No pseudopotential on this center.
   75          6
                                   No pseudopotential on this center.
   76          6
                                   No pseudopotential on this center.
   77          1
                                   No pseudopotential on this center.
   78          1
                                   No pseudopotential on this center.
   79          1
                                   No pseudopotential on this center.
   80          1
                                   No pseudopotential on this center.
   81          7
                                   No pseudopotential on this center.
 ======================================================================================================
 There are   759 symmetry adapted cartesian basis functions of A   symmetry.
 There are   712 symmetry adapted basis functions of A   symmetry.
   712 basis functions,  1479 primitive gaussians,   759 cartesian basis functions
   193 alpha electrons      193 beta electrons
       nuclear repulsion energy      7878.8484474425 Hartrees.
 NAtoms=   81 NActive=   81 NUniq=   81 SFac= 1.00D+00 NAtFMM=   60 NAOKFM=T Big=T
 Integral buffers will be    131072 words long.
 Raffenetti 2 integral format.
 Two-electron integral symmetry is turned on.
 One-electron integrals computed using PRISM.
   1 Symmetry operations used in ECPInt.
 ECPInt:  NShTT=   35511 NPrTT=  217750 LenC2=   26834 LenP2D=   83203.
 LDataN:  DoStor=T MaxTD1= 7 Len=  274
 NBasis=   712 RedAO= T EigKep=  2.15D-03  NBF=   712
 NBsUse=   712 1.00D-06 EigRej= -1.00D+00 NBFU=   712
 Defaulting to unpruned grid for atomic number  79.
 ExpMin= 2.79D-02 ExpMax= 5.61D+05 ExpMxC= 5.42D+03 IAcc=3 IRadAn=         5 AccDes= 0.00D+00
 Harris functional with IExCor=  402 and IRadAn=       5 diagonalized for initial guess.
 HarFok:  IExCor=  402 AccDes= 0.00D+00 IRadAn=         5 IDoV= 1 UseB2=F ITyADJ=14
 ICtDFT=  3500011 ScaDFX=  1.000000  1.000000  1.000000  1.000000
 Defaulting to unpruned grid for atomic number  79.
 Defaulting to unpruned grid for atomic number  79.
 Defaulting to unpruned grid for atomic number  79.
 Defaulting to unpruned grid for atomic number  79.
 Defaulting to unpruned grid for atomic number  79.
 Defaulting to unpruned grid for atomic number  79.
 Defaulting to unpruned grid for atomic number  79.
 Defaulting to unpruned grid for atomic number  79.
 FoFCou: FMM=F IPFlag=           0 FMFlag=      100000 FMFlg1=        2001
         NFxFlg=           0 DoJE=T BraDBF=F KetDBF=T FulRan=T
         wScrn=  0.000000 ICntrl=     500 IOpCl=  0 I1Cent=   200000004 NGrid=           0
         NMat0=    1 NMatS0=      1 NMatT0=    0 NMatD0=    1 NMtDS0=    0 NMtDT0=    0
 Petite list used in FoFCou.
 Requested convergence on RMS density matrix=1.00D-08 within 128 cycles.
 Requested convergence on MAX density matrix=1.00D-06.
 Requested convergence on             energy=1.00D-06.
 No special actions if energy rises.
 Defaulting to unpruned grid for atomic number  79.
 Defaulting to unpruned grid for atomic number  79.
 Defaulting to unpruned grid for atomic number  79.
 Defaulting to unpruned grid for atomic number  79.
 Defaulting to unpruned grid for atomic number  79.
 Defaulting to unpruned grid for atomic number  79.
 Defaulting to unpruned grid for atomic number  79.
 Defaulting to unpruned grid for atomic number  79.
 EnCoef did     4 forward-backward iterations
 EnCoef did     1 forward-backward iterations
 SCF Done:  E(RB3LYP) =  -5787.88189113     A.U. after   19 cycles
            NFock= 19  Conv=0.85D-08     -V/T= 2.0173

 **********************************************************************

            Population analysis using the SCF density.

 **********************************************************************

 Orbital symmetries:
       Occupied  (A) (A) (A) (A) (A) (A) (A) (A) (A) (A) (A) (A)
                 (A) (A) (A) (A) (A) (A) (A) (A) (A) (A) (A) (A)
                 (A) (A) (A) (A) (A) (A) (A) (A) (A) (A) (A) (A)
                 (A) (A) (A) (A) (A) (A) (A) (A) (A) (A) (A) (A)
                 (A) (A) (A) (A) (A) (A) (A) (A) (A) (A) (A) (A)
                 (A) (A) (A) (A) (A) (A) (A) (A) (A) (A) (A) (A)
                 (A) (A) (A) (A) (A) (A) (A) (A) (A) (A) (A) (A)
                 (A) (A) (A) (A) (A) (A) (A) (A) (A) (A) (A) (A)
                 (A) (A) (A) (A) (A) (A) (A) (A) (A) (A) (A) (A)
                 (A) (A) (A) (A) (A) (A) (A) (A) (A) (A) (A) (A)
                 (A) (A) (A) (A) (A) (A) (A) (A) (A) (A) (A) (A)
                 (A) (A) (A) (A) (A) (A) (A) (A) (A) (A) (A) (A)
                 (A) (A) (A) (A) (A) (A) (A) (A) (A) (A) (A) (A)
                 (A) (A) (A) (A) (A) (A) (A) (A) (A) (A) (A) (A)
                 (A) (A) (A) (A) (A) (A) (A) (A) (A) (A) (A) (A)
                 (A) (A) (A) (A) (A) (A) (A) (A) (A) (A) (A) (A)
                 (A)
       Virtual   (A) (A) (A) (A) (A) (A) (A) (A) (A) (A) (A) (A)
                 (A) (A) (A) (A) (A) (A) (A) (A) (A) (A) (A) (A)
                 (A) (A) (A) (A) (A) (A) (A) (A) (A) (A) (A) (A)
                 (A) (A) (A) (A) (A) (A) (A) (A) (A) (A) (A) (A)
                 (A) (A) (A) (A) (A) (A) (A) (A) (A) (A) (A) (A)
                 (A) (A) (A) (A) (A) (A) (A) (A) (A) (A) (A) (A)
                 (A) (A) (A) (A) (A) (A) (A) (A) (A) (A) (A) (A)
                 (A) (A) (A) (A) (A) (A) (A) (A) (A) (A) (A) (A)
                 (A) (A) (A) (A) (A) (A) (A) (A) (A) (A) (A) (A)
                 (A) (A) (A) (A) (A) (A) (A) (A) (A) (A) (A) (A)
                 (A) (A) (A) (A) (A) (A) (A) (A) (A) (A) (A) (A)
                 (A) (A) (A) (A) (A) (A) (A) (A) (A) (A) (A) (A)
                 (A) (A) (A) (A) (A) (A) (A) (A) (A) (A) (A) (A)
                 (A) (A) (A) (A) (A) (A) (A) (A) (A) (A) (A) (A)
                 (A) (A) (A) (A) (A) (A) (A) (A) (A) (A) (A) (A)
                 (A) (A) (A) (A) (A) (A) (A) (A) (A) (A) (A) (A)
                 (A) (A) (A) (A) (A) (A) (A) (A) (A) (A) (A) (A)
                 (A) (A) (A) (A) (A) (A) (A) (A) (A) (A) (A) (A)
                 (A) (A) (A) (A) (A) (A) (A) (A) (A) (A) (A) (A)
                 (A) (A) (A) (A) (A) (A) (A) (A) (A) (A) (A) (A)
                 (A) (A) (A) (A) (A) (A) (A) (A) (A) (A) (A) (A)
                 (A) (A) (A) (A) (A) (A) (A) (A) (A) (A) (A) (A)
                 (A) (A) (A) (A) (A) (A) (A) (A) (A) (A) (A) (A)
                 (A) (A) (A) (A) (A) (A) (A) (A) (A) (A) (A) (A)
                 (A) (A) (A) (A) (A) (A) (A) (A) (A) (A) (A) (A)
                 (A) (A) (A) (A) (A) (A) (A) (A) (A) (A) (A) (A)
                 (A) (A) (A) (A) (A) (A) (A) (A) (A) (A) (A) (A)
                 (A) (A) (A) (A) (A) (A) (A) (A) (A) (A) (A) (A)
                 (A) (A) (A) (A) (A) (A) (A) (A) (A) (A) (A) (A)
                 (A) (A) (A) (A) (A) (A) (A) (A) (A) (A) (A) (A)
                 (A) (A) (A) (A) (A) (A) (A) (A) (A) (A) (A) (A)
                 (A) (A) (A) (A) (A) (A) (A) (A) (A) (A) (A) (A)
                 (A) (A) (A) (A) (A) (A) (A) (A) (A) (A) (A) (A)
                 (A) (A) (A) (A) (A) (A) (A) (A) (A) (A) (A) (A)
                 (A) (A) (A) (A) (A) (A) (A) (A) (A) (A) (A) (A)
                 (A) (A) (A) (A) (A) (A) (A) (A) (A) (A) (A) (A)
                 (A) (A) (A) (A) (A) (A) (A) (A) (A) (A) (A) (A)
                 (A) (A) (A) (A) (A) (A) (A) (A) (A) (A) (A) (A)
                 (A) (A) (A) (A) (A) (A) (A) (A) (A) (A) (A) (A)
                 (A) (A) (A) (A) (A) (A) (A) (A) (A) (A) (A) (A)
                 (A) (A) (A) (A) (A) (A) (A) (A) (A) (A) (A) (A)
                 (A) (A) (A) (A) (A) (A) (A) (A) (A) (A) (A) (A)
                 (A) (A) (A) (A) (A) (A) (A) (A) (A) (A) (A) (A)
                 (A) (A) (A)
 The electronic state is 1-A.
 Alpha  occ. eigenvalues -- -453.54363 -88.86575 -88.86310 -88.85578 -77.12593
 Alpha  occ. eigenvalues --  -57.26280 -52.03846 -52.03753 -52.03485 -19.19705
 Alpha  occ. eigenvalues --  -19.14047 -19.13893 -19.13071 -19.11647 -19.11641
 Alpha  occ. eigenvalues --  -19.09936 -14.37075 -14.37003 -14.34918 -14.34276
 Alpha  occ. eigenvalues --  -14.32065 -14.30629 -10.32241 -10.30635 -10.28748
 Alpha  occ. eigenvalues --  -10.28663 -10.27428 -10.26675 -10.25104 -10.24839
 Alpha  occ. eigenvalues --  -10.23063 -10.22416 -10.22383 -10.21716 -10.21667
 Alpha  occ. eigenvalues --  -10.21477 -10.21448 -10.21426 -10.20759 -10.20235
 Alpha  occ. eigenvalues --  -10.19789 -10.19599 -10.18525 -10.18313  -7.93926
 Alpha  occ. eigenvalues --   -7.93727  -7.92968  -7.61301  -6.60533  -5.90343
 Alpha  occ. eigenvalues --   -5.90139  -5.89988  -5.89812  -5.89399  -5.89331
 Alpha  occ. eigenvalues --   -5.89201  -5.88957  -5.88469  -5.74324  -5.74010
 Alpha  occ. eigenvalues --   -5.73026  -4.76662  -4.76635  -4.76506  -4.22415
 Alpha  occ. eigenvalues --   -2.36318  -2.35921  -2.34166  -2.10510  -2.10487
 Alpha  occ. eigenvalues --   -2.09672  -2.09420  -2.09230  -1.11254  -1.05226
 Alpha  occ. eigenvalues --   -1.03757  -1.03467  -1.02293  -1.01725  -1.01380
 Alpha  occ. eigenvalues --   -0.94566  -0.94111  -0.93093  -0.91948  -0.91364
 Alpha  occ. eigenvalues --   -0.88436  -0.82140  -0.79319  -0.78003  -0.77887
 Alpha  occ. eigenvalues --   -0.77301  -0.77031  -0.76085  -0.74739  -0.74434
 Alpha  occ. eigenvalues --   -0.72150  -0.70949  -0.68965  -0.68583  -0.67977
 Alpha  occ. eigenvalues --   -0.64709  -0.64647  -0.63650  -0.62048  -0.61987
 Alpha  occ. eigenvalues --   -0.61062  -0.60955  -0.59762  -0.58893  -0.57755
 Alpha  occ. eigenvalues --   -0.57028  -0.55825  -0.53779  -0.52314  -0.51707
 Alpha  occ. eigenvalues --   -0.51440  -0.50469  -0.50085  -0.49770  -0.49334
 Alpha  occ. eigenvalues --   -0.48781  -0.48569  -0.48314  -0.48104  -0.47650
 Alpha  occ. eigenvalues --   -0.47393  -0.47284  -0.46377  -0.45948  -0.45571
 Alpha  occ. eigenvalues --   -0.45454  -0.44752  -0.44197  -0.44140  -0.43798
 Alpha  occ. eigenvalues --   -0.43546  -0.43266  -0.43102  -0.42627  -0.41862
 Alpha  occ. eigenvalues --   -0.41729  -0.41325  -0.41220  -0.40975  -0.40716
 Alpha  occ. eigenvalues --   -0.40682  -0.40382  -0.39786  -0.39591  -0.39500
 Alpha  occ. eigenvalues --   -0.39188  -0.39164  -0.39076  -0.38521  -0.38344
 Alpha  occ. eigenvalues --   -0.37761  -0.37599  -0.37542  -0.37345  -0.37139
 Alpha  occ. eigenvalues --   -0.36931  -0.36493  -0.36360  -0.36179  -0.35781
 Alpha  occ. eigenvalues --   -0.35180  -0.34258  -0.33987  -0.33407  -0.33281
 Alpha  occ. eigenvalues --   -0.32875  -0.32404  -0.32192  -0.31149  -0.30373
 Alpha  occ. eigenvalues --   -0.29020  -0.28408  -0.28176  -0.27283  -0.26557
 Alpha  occ. eigenvalues --   -0.26387  -0.26315  -0.25992  -0.25516  -0.25117
 Alpha  occ. eigenvalues --   -0.24484  -0.24293  -0.24149  -0.23583  -0.23164
 Alpha  occ. eigenvalues --   -0.22906  -0.22068  -0.20022
 Alpha virt. eigenvalues --   -0.12284  -0.02503  -0.01142  -0.00800   0.00107
 Alpha virt. eigenvalues --    0.00792   0.00946   0.01581   0.01691   0.02297
 Alpha virt. eigenvalues --    0.02533   0.03325   0.03897   0.05232   0.05433
 Alpha virt. eigenvalues --    0.06331   0.06854   0.06958   0.07191   0.08512
 Alpha virt. eigenvalues --    0.08913   0.08988   0.09452   0.09912   0.10203
 Alpha virt. eigenvalues --    0.10493   0.11151   0.11538   0.11633   0.12333
 Alpha virt. eigenvalues --    0.12540   0.12855   0.13231   0.13382   0.13559
 Alpha virt. eigenvalues --    0.13771   0.14360   0.14762   0.14960   0.15146
 Alpha virt. eigenvalues --    0.15330   0.15960   0.16225   0.16379   0.16744
 Alpha virt. eigenvalues --    0.17095   0.17191   0.17522   0.17899   0.18268
 Alpha virt. eigenvalues --    0.18440   0.18523   0.18944   0.19370   0.19639
 Alpha virt. eigenvalues --    0.19710   0.19963   0.20216   0.20372   0.20583
 Alpha virt. eigenvalues --    0.20960   0.21303   0.21589   0.21830   0.22079
 Alpha virt. eigenvalues --    0.22273   0.22442   0.23219   0.23275   0.23618
 Alpha virt. eigenvalues --    0.23815   0.24325   0.25020   0.25246   0.25381
 Alpha virt. eigenvalues --    0.25658   0.26043   0.26666   0.27405   0.27616
 Alpha virt. eigenvalues --    0.28324   0.30483   0.30978   0.33116   0.33452
 Alpha virt. eigenvalues --    0.34264   0.34692   0.35066   0.35473   0.36126
 Alpha virt. eigenvalues --    0.36272   0.36768   0.37577   0.37664   0.38255
 Alpha virt. eigenvalues --    0.38527   0.38804   0.39165   0.40274   0.40781
 Alpha virt. eigenvalues --    0.41116   0.41788   0.41942   0.42673   0.43306
 Alpha virt. eigenvalues --    0.43852   0.44681   0.45558   0.45898   0.46694
 Alpha virt. eigenvalues --    0.46876   0.47413   0.47875   0.48255   0.48878
 Alpha virt. eigenvalues --    0.50341   0.50864   0.51127   0.52645   0.52953
 Alpha virt. eigenvalues --    0.53131   0.53644   0.53820   0.54321   0.54852
 Alpha virt. eigenvalues --    0.55080   0.55293   0.55448   0.56323   0.56483
 Alpha virt. eigenvalues --    0.56866   0.57296   0.57588   0.57765   0.58239
 Alpha virt. eigenvalues --    0.58668   0.59098   0.59317   0.59459   0.59828
 Alpha virt. eigenvalues --    0.60126   0.60677   0.60971   0.61325   0.62021
 Alpha virt. eigenvalues --    0.62407   0.63274   0.63365   0.64119   0.64886
 Alpha virt. eigenvalues --    0.64962   0.65143   0.65381   0.65895   0.66388
 Alpha virt. eigenvalues --    0.66703   0.66944   0.67356   0.67992   0.68372
 Alpha virt. eigenvalues --    0.69137   0.69363   0.69536   0.70459   0.70694
 Alpha virt. eigenvalues --    0.71068   0.71770   0.72970   0.73243   0.73292
 Alpha virt. eigenvalues --    0.73849   0.74253   0.74772   0.75202   0.75610
 Alpha virt. eigenvalues --    0.75894   0.75964   0.76566   0.76783   0.77364
 Alpha virt. eigenvalues --    0.77893   0.78365   0.78615   0.79639   0.79896
 Alpha virt. eigenvalues --    0.80225   0.80811   0.81148   0.81946   0.82228
 Alpha virt. eigenvalues --    0.82586   0.82658   0.83009   0.83626   0.83765
 Alpha virt. eigenvalues --    0.83989   0.84296   0.84662   0.84899   0.85265
 Alpha virt. eigenvalues --    0.85421   0.85965   0.86233   0.86497   0.86785
 Alpha virt. eigenvalues --    0.86869   0.87207   0.87462   0.87555   0.87875
 Alpha virt. eigenvalues --    0.88300   0.88464   0.88630   0.89227   0.89352
 Alpha virt. eigenvalues --    0.89834   0.89978   0.90198   0.90472   0.90524
 Alpha virt. eigenvalues --    0.90855   0.91300   0.91589   0.91680   0.92194
 Alpha virt. eigenvalues --    0.92766   0.92925   0.93131   0.93796   0.94139
 Alpha virt. eigenvalues --    0.94720   0.94885   0.94949   0.95453   0.95804
 Alpha virt. eigenvalues --    0.95887   0.96209   0.96562   0.97333   0.97714
 Alpha virt. eigenvalues --    0.97799   0.98191   0.98666   0.99092   0.99358
 Alpha virt. eigenvalues --    0.99611   1.00043   1.00157   1.00695   1.01024
 Alpha virt. eigenvalues --    1.01362   1.01611   1.02607   1.03047   1.03134
 Alpha virt. eigenvalues --    1.03489   1.03705   1.04117   1.04853   1.05029
 Alpha virt. eigenvalues --    1.06014   1.06546   1.07170   1.07594   1.08010
 Alpha virt. eigenvalues --    1.08877   1.09477   1.10160   1.10253   1.11017
 Alpha virt. eigenvalues --    1.12464   1.13038   1.13268   1.14609   1.15194
 Alpha virt. eigenvalues --    1.15616   1.16617   1.17460   1.17737   1.18900
 Alpha virt. eigenvalues --    1.19381   1.19643   1.21397   1.21899   1.22745
 Alpha virt. eigenvalues --    1.23923   1.24400   1.25365   1.26361   1.26664
 Alpha virt. eigenvalues --    1.27681   1.28754   1.29159   1.29804   1.31876
 Alpha virt. eigenvalues --    1.32308   1.33851   1.34740   1.35962   1.37424
 Alpha virt. eigenvalues --    1.37748   1.38266   1.39620   1.39945   1.41472
 Alpha virt. eigenvalues --    1.42267   1.42582   1.43834   1.44877   1.46201
 Alpha virt. eigenvalues --    1.46740   1.47698   1.47973   1.49874   1.50983
 Alpha virt. eigenvalues --    1.51539   1.52020   1.52590   1.52985   1.53859
 Alpha virt. eigenvalues --    1.54395   1.55266   1.55976   1.57100   1.57785
 Alpha virt. eigenvalues --    1.58360   1.58972   1.60571   1.61931   1.62331
 Alpha virt. eigenvalues --    1.62638   1.62792   1.63371   1.63995   1.65156
 Alpha virt. eigenvalues --    1.65393   1.65512   1.67177   1.68452   1.69981
 Alpha virt. eigenvalues --    1.70311   1.70799   1.71369   1.72101   1.73112
 Alpha virt. eigenvalues --    1.74307   1.74801   1.76781   1.77076   1.77344
 Alpha virt. eigenvalues --    1.78100   1.78707   1.79337   1.80286   1.80462
 Alpha virt. eigenvalues --    1.81961   1.82462   1.82846   1.83055   1.83903
 Alpha virt. eigenvalues --    1.84084   1.84355   1.84598   1.85782   1.86383
 Alpha virt. eigenvalues --    1.86463   1.88335   1.88852   1.89410   1.90101
 Alpha virt. eigenvalues --    1.90771   1.91310   1.91941   1.92398   1.92755
 Alpha virt. eigenvalues --    1.93137   1.93607   1.93727   1.93942   1.94368
 Alpha virt. eigenvalues --    1.94708   1.94827   1.95172   1.95392   1.96043
 Alpha virt. eigenvalues --    1.96516   1.96582   1.96883   1.97127   1.97229
 Alpha virt. eigenvalues --    1.97775   1.98100   1.98501   1.98922   1.99139
 Alpha virt. eigenvalues --    1.99496   1.99945   2.00482   2.00616   2.01701
 Alpha virt. eigenvalues --    2.02063   2.02861   2.03496   2.04186   2.04312
 Alpha virt. eigenvalues --    2.05138   2.05851   2.06740   2.07292   2.07759
 Alpha virt. eigenvalues --    2.08100   2.08128   2.08601   2.10246   2.11019
 Alpha virt. eigenvalues --    2.11251   2.12334   2.12615   2.14164   2.14730
 Alpha virt. eigenvalues --    2.14963   2.15786   2.16269   2.16818   2.17265
 Alpha virt. eigenvalues --    2.18267   2.19423   2.19979   2.20380   2.21457
 Alpha virt. eigenvalues --    2.22195   2.22677   2.23192   2.24553   2.24867
 Alpha virt. eigenvalues --    2.25201   2.25860   2.25974   2.27432   2.27571
 Alpha virt. eigenvalues --    2.28249   2.28895   2.29762   2.30257   2.30850
 Alpha virt. eigenvalues --    2.31000   2.31278   2.31478   2.32173   2.32318
 Alpha virt. eigenvalues --    2.33117   2.33462   2.33615   2.33990   2.34137
 Alpha virt. eigenvalues --    2.35373   2.38275   2.38611   2.40091   2.41117
 Alpha virt. eigenvalues --    2.42507   2.42994   2.44598   2.44955   2.45559
 Alpha virt. eigenvalues --    2.45571   2.47907   2.49752   2.51372   2.52517
 Alpha virt. eigenvalues --    2.53246   2.53355   2.56458   2.57972   2.58269
[...]
 7,0.00000555,0.00000371,0.00000699,-0.00000054,-0.00001149,-0.00000915
 ,-0.00000010,-0.00000302,-0.00000088,-0.00000039,-0.00000442,0.0000023
 3,0.00000549,0.00000207,0.00000259,-0.00000462,-0.00000097,-0.00000295
 ,0.00000551,-0.00000049,0.00000268,-0.00000246,-0.00000094,-0.00000319
 ,-0.00000345,-0.00000171,-0.00000148,-0.00000057,-0.00003326,0.0000291
 5,0.00000012,0.00003090,-0.00003528,0.00004430,-0.00000645,-0.00004065
 ,-0.00003928,0.00002789,0.00003189,-0.00001164,0.00023531,0.00034558,0
 .00045967,-0.00001240,0.00001143,-0.00003333,-0.00005487,-0.00006361,-
 0.00001873,0.00004271,0.00022055,0.00003381,0.00000199,-0.00015524,-0.
 00009550,0.00017054,0.00034284,0.00012401,-0.00045916,0.00021361,-0.00
 004952,-0.00000700,-0.00011086,0.00002680,0.00001028,0.00003936,0.0000
 1533,0.00005077,0.00000256,0.00004483,-0.00006554,-0.00000474,-0.00004
 144,-0.00002953,-0.00003205,-0.00001989,0.00001431,0.00001299,0.000023
 29,-0.00006643,0.00016643,-0.00008578,0.00000400,-0.00008996,0.0000452
 5,0.00004829,0.00000735,-0.00002571,-0.00002269,0.00005488,0.00001903,
 -0.00006858,-0.00020913,0.00016487,0.00016554,0.00007295,0.00005091,0.
 00015600,-0.00004402,0.00002795,-0.00154031,0.00101820,-0.00167446,-0.
 00255522,-0.00128276,0.00003914,0.00097290,0.00014417,0.00054714,-0.00
 011604,0.00010185,-0.00028259,-0.00019963,-0.00002294,0.00003963,0.000
 11680,0.00000767,-0.00000596,0.00015577,-0.00002763,0.00002463,-0.0000
 0157,-0.00003934,-0.00004984,-0.00024939,0.00000089,0.00008844,0.00006
 932,-0.00002188,0.00001314,0.00002680,-0.00002278,-0.00001019,-0.00001
 435,0.00000134,0.00001485,-0.00000037,-0.00000331,0.00001395,-0.000004
 66,-0.00000309,-0.00000504,-0.00000466,-0.00000461,0.00000323,-0.00000
 970,0.00001031,0.00000316,-0.00002138,-0.00001017,0.00000508,-0.000004
 66,-0.00000022,-0.00000169,-0.00000664,-0.00001439,-0.00000156,0.00003
 418,0.00000377,-0.00000727,-0.00000698,-0.00000401,0.00000737,0.000018
 40,-0.00003249,0.00001180,-0.00006024,-0.00004825,0.00006171,0.0000850
 0,0.00010707,-0.00001718,0.00004580,-0.00001357,0.00006021,0.00004998,
 -0.00002185,0.00002685,-0.00009351,-0.00009237,0.00002764,-0.00001071,
 0.00000388,-0.00000248,-0.00004246,-0.00003085,0.00000667,0.00168924,-
 0.00261083,-0.00125046,-0.00066990,0.00026839,-0.00008371,-0.26756746,
 -0.07054493,-0.07281143,-0.01421967,-0.00336597,-0.00701017,0.00551010
 ,0.00175056,0.00061685,-0.00073262,0.00241838,0.00025135,0.00139801,-0
 .00024386,-0.00003720,0.29048832,-0.00015914,0.00027171,-0.00000988,0.
 00002804,0.00022966,0.00007355,0.00000025,-0.00001730,0.00000195,-0.00
 001337,-0.00001440,-0.00001559,0.00003281,0.00002531,-0.00003169,0.000
 03082,0.00001227,0.00000779,0.00001283,-0.00001869,-0.00002233,0.00001
 749,0.00002524,0.00004277,-0.00000399,0.00000350,-0.00001855,0.0000007
 0,-0.00000659,0.00000553,-0.00000105,-0.00000267,-0.00000204,0.0000074
 1,0.00001477,-0.00000906,-0.00001207,-0.00001921,-0.00001191,0.0000336
 2,-0.00002096,0.00004365,-0.00001152,-0.00000783,0.00000403,0.00000362
 ,-0.00001260,0.00001387,-0.00000437,-0.00000859,-0.00000409,-0.0000003
 9,0.00000311,-0.00000375,0.00000258,0.00000341,-0.00000057,-0.00002265
 ,-0.00004111,-0.00005837,-0.00005855,-0.00000442,0.00001301,0.00000790
 ,0.00002690,0.00001789,-0.00000003,-0.00001269,0.00002115,-0.00033361,
 -0.00005734,0.00181114,-0.00009169,0.00001301,0.00004952,0.00003643,0.
 00000324,0.00000821,0.00006710,-0.00009871,0.00020902,-0.00005801,0.00
 002822,-0.00008010,0.00059972,0.00006628,-0.00040661,-0.00041643,0.000
 24964,0.00026210,-0.00002336,0.00007990,-0.00007975,0.00000149,-0.0000
 5516,-0.00001478,-0.00000990,-0.00005813,0.00029636,-0.00004183,0.0001
 8558,-0.00018740,0.00013681,0.00009288,-0.00016375,0.00003401,-0.00002
 152,0.00007447,0.00006310,-0.00027845,0.00010094,-0.00007000,0.0000729
 1,-0.00013014,-0.00010429,-0.00007730,0.00004729,0.00008484,-0.0001691
 9,-0.00006855,0.00006352,0.00020276,-0.00017312,0.00006373,0.00008601,
 0.00011645,0.00000984,-0.00004975,0.00009784,0.00073381,-0.00058061,0.
 00069166,-0.00111616,-0.00074223,-0.00138325,-0.00036418,0.00005383,-0
 .00016207,-0.00004262,0.00001745,0.00012520,0.00005278,0.00004090,-0.0
 0001201,-0.00003040,-0.00002267,-0.00000337,-0.00004884,-0.00000465,-0
 .00001068,-0.00003697,-0.00002470,0.00003249,0.00017559,0.00006494,0.0
 0000024,-0.00023185,-0.00021280,0.00007479,-0.00003103,0.00001431,0.00
 000445,0.00001582,0.00000705,-0.00000244,-0.00003256,-0.00000710,-0.00
 001648,0.00001196,-0.00000621,0.00000128,-0.00000320,0.00000880,-0.000
 00959,0.00000873,0.00000334,0.00000431,0.00005577,0.00002392,-0.000004
 89,0.00001088,0.00002202,-0.00001087,0.00000436,0.00001017,-0.00001639
 ,-0.00010156,-0.00005469,0.00006261,0.00000018,0.00001359,-0.00007673,
 -0.00014591,0.00008014,0.00015183,-0.00000349,-0.00001682,-0.00002861,
 0.00008937,-0.00026826,0.00031500,-0.00000051,-0.00000571,-0.00001245,
 -0.00001299,0.00000692,0.00000402,0.00001758,0.00004325,-0.00001014,0.
 00000319,0.00000481,0.00000673,0.00002434,-0.00002933,-0.00005899,0.00
 195947,-0.00397210,-0.00296591,-0.00098655,0.00109175,-0.00028426,-0.0
 7258527,-0.07563596,-0.02906976,0.02512531,0.00664851,0.01076705,-0.01
 575555,-0.00497477,-0.00627630,0.00422872,-0.00361359,0.00041802,-0.00
 009851,0.00161682,0.00001015,0.08075407,0.08568801,0.00026558,-0.00027
 021,0.00010955,-0.00004227,-0.00033199,-0.00016404,0.00000610,0.000010
 64,-0.00000433,0.00000777,0.00002269,0.00001809,-0.00004290,-0.0000259
 1,0.00003888,0.00002447,0.00004217,0.00004388,-0.00001095,0.00003499,0
 .00001101,0.00001204,-0.00005794,-0.00015500,-0.00002139,-0.00000076,0
 .00002288,-0.00000397,0.00001034,-0.00001115,-0.00000075,-0.00000412,0
 .00000273,-0.00002467,-0.00003718,0.00001269,0.00001872,0.00002377,0.0
 0001289,-0.00005079,0.00002374,-0.00004889,0.00001037,0.00001553,-0.00
 000444,0.00000532,0.00000294,-0.00001083,0.00000027,0.00000464,0.00000
 327,0.00000100,0.00000068,0.00000576,-0.00000337,-0.00000192,0.0000011
 7,0.00005173,-0.00002471,-0.00001184,-0.00002963,0.00001700,-0.0000584
 3,-0.00000204,0.00006152,0.00007198,-0.00003548,-0.00002811,0.00002784
 ,-0.00018001,-0.00003774,-0.00278484,-0.00004749,0.00002380,-0.0000325
 1,0.00003259,0.00006584,-0.00002139,0.00008618,0.00019167,0.00024728,-
 0.00003920,-0.00017058,-0.00022544,0.00017434,-0.00015738,-0.00007745,
 -0.00022299,0.00048938,-0.00013656,-0.00000397,-0.00007708,-0.00004788
 ,0.00000549,0.00002886,0.00002009,0.00002110,-0.00001817,0.00011519,-0
 .00004131,0.00006076,-0.00008471,-0.00003556,-0.00005723,-0.00004430,0
 .00002037,0.00001968,0.00005212,-0.00014706,0.00037594,-0.00018007,0.0
 0005463,-0.00018795,0.00009683,0.00008968,0.00005895,-0.00005120,-0.00
 007418,0.00022642,0.00005651,-0.00001117,-0.00040892,0.00015277,0.0000
 5805,0.00013270,0.00016341,-0.00006200,0.00003942,-0.00026312,-0.00172
 194,0.00126687,-0.00261892,0.00016621,-0.00140369,0.00102571,0.0014007
 9,0.00013303,0.00087358,-0.00011976,0.00023598,-0.00026690,-0.00029195
 ,-0.00004027,0.00010829,0.00017001,0.00001987,-0.00004834,0.00021400,-
 0.00003686,0.00001659,0.00001116,-0.00007483,-0.00011506,0.00020098,-0
 .00000274,0.00018314,-0.00009386,-0.00005565,-0.00004118,-0.00003529,0
 .00001624,-0.00000982,0.00002324,-0.00001408,0.00003821,-0.00001301,0.
 00000216,-0.00000173,-0.00000214,-0.00001176,-0.00000601,-0.00000197,-
 0.00000074,-0.00000125,-0.00001535,0.00002632,0.00001244,-0.00006126,-
 0.00003079,0.00000683,-0.00001061,-0.00000491,0.00000350,-0.00001082,-
 0.00003047,0.00000201,0.00004158,0.00001960,-0.00004506,0.00000210,-0.
 00004397,0.00007463,0.00044003,0.00018990,-0.00054303,-0.00001722,-0.0
 0006846,0.00004704,-0.00006108,0.00024935,0.00003880,0.00008118,-0.000
 03091,0.00008624,0.00005017,-0.00002286,0.00004479,-0.00014912,-0.0001
 4969,0.00006141,-0.00000946,0.00000792,0.00000128,-0.00002493,-0.00004
 095,0.00012005,0.00026526,0.00457762,0.00250349,-0.00106305,-0.0000545
 3,0.00041331,-0.07471726,-0.03047510,-0.07397359,-0.00306137,0.0002645
 7,-0.00163557,-0.02507466,-0.00880374,-0.00740872,-0.00057928,0.001192
 15,0.00118562,-0.00018899,0.00017707,0.00032565,0.07353598,0.02150891,
 0.08244301,-0.00139980,0.00011139,0.00008657,-0.00025666,0.00077337,0.
 00033026,0.00001447,-0.00007856,0.00001690,0.00002002,-0.00007750,-0.0
 0005640,0.00014603,0.00020624,-0.00008425,-0.00063111,-0.00012916,-0.0
 0024958,0.00012696,-0.00045025,0.00002438,0.00014888,-0.00100318,0.000
 27388,0.00001071,-0.00000238,-0.00005654,0.00000567,-0.00006516,0.0000
 2957,-0.00000370,-0.00001551,-0.00000830,0.00011486,-0.00002086,-0.000
 08866,-0.00004873,-0.00007700,-0.00004863,-0.00000126,0.00002048,0.000
 21752,0.00002423,0.00001249,0.00003147,-0.00000189,-0.00007828,0.00004
 704,-0.00001653,-0.00003747,-0.00000967,-0.00001483,0.00001269,-0.0000
 0659,0.00002972,0.00001496,-0.00000748,-0.00067199,0.00024246,-0.00001
 037,0.00005360,-0.00044791,-0.00003871,0.00008489,-0.00001811,-0.00006
 186,0.00022326,0.00012541,0.00006543,-0.01478851,0.00013858,0.02423351
 ,-0.00020574,0.00004278,0.00011923,0.00005854,-0.00005402,-0.00001916,
 0.00009199,-0.00034250,0.00035189,-0.00011641,0.00018625,-0.00006454,0
 .00065127,0.00032788,-0.00037945,-0.00137050,0.00031424,0.00052944,-0.
 00009590,0.00026294,-0.00015384,0.00000215,-0.00017793,-0.00005290,0.0
 0002668,-0.00014881,0.00046003,-0.00008131,0.00036312,-0.00029621,0.00
 034304,0.00041813,-0.00034011,0.00009420,-0.00012887,0.00016456,0.0004
 5542,-0.00153002,0.00067378,-0.00041612,0.00047930,-0.00064353,-0.0003
 7098,-0.00036038,0.00028989,0.00041724,-0.00058294,-0.00047430,-0.0003
 1336,0.00126056,-0.00032939,-0.00004996,0.00045725,-0.00038677,-0.0000
 4861,-0.00122327,0.00017453,0.00195577,-0.00031903,0.00139024,-0.00125
 061,0.00003010,-0.00142894,-0.00099848,-0.00031205,-0.00050237,0.00011
 935,-0.00010112,0.00031211,0.00039358,0.00000815,0.00002116,-0.0002101
 2,-0.00002877,-0.00003059,-0.00027892,0.00004998,-0.00008247,-0.000056
 96,-0.00005766,0.00002726,0.00015108,0.00001784,0.00004297,0.00002342,
 -0.00046988,0.00006238,-0.00004641,0.00003368,0.00001743,0.00005952,-0
 .00000327,-0.00000541,-0.00006974,-0.00000379,-0.00005304,0.00003009,-
 0.00000888,0.00001286,-0.00000635,0.00002019,-0.00003089,0.00006366,-0
 .00001888,-0.00001426,0.00025533,0.00012243,-0.00002451,0.00006415,0.0
 0004028,-0.00004530,0.00000903,0.00007053,-0.00005035,-0.00030568,-0.0
 0033080,0.00024905,-0.00027167,0.00019409,-0.00073732,0.00001152,0.001
 09503,0.00064813,-0.00020144,0.00002443,0.00003427,0.00144226,-0.00074
 713,0.00022343,-0.00005373,0.00001968,-0.00007918,-0.00002375,0.000021
 87,-0.00002238,0.00010838,0.00015102,0.00001312,0.00003710,0.00000265,
 0.00002774,-0.00008378,-0.00016034,-0.00002040,-0.24224369,0.16142091,
 0.18741176,-0.00001988,0.03712083,0.00664744,-0.08519165,-0.03649351,0
 .03067672,0.00463090,0.00402809,-0.00153929,-0.00182336,-0.00332556,0.
 00724614,0.00081836,-0.00070495,-0.00014117,-0.00081745,0.00141701,0.0
 0058085,-0.01263984,-0.02154623,0.03090906,0.35418009,-0.00046143,-0.0
 0056682,-0.00107124,0.00095534,0.00033614,-0.00160936,0.00010113,-0.00
 012007,0.00012706,-0.00015299,0.00011674,0.00005325,-0.00017476,-0.000
 01742,0.00008864,-0.00098759,-0.00028582,-0.00095186,-0.00022463,-0.00
 111055,0.00012762,0.00124231,-0.00099220,0.00060676,-0.00033683,0.0000
 7899,0.00044012,-0.00002450,0.00009573,-0.00010580,-0.00003129,-0.0001
 8827,0.00003180,-0.00017877,-0.00010775,0.00014072,0.00015888,0.000088
 78,0.00004667,0.00016403,-0.00016010,-0.00014854,-0.00012588,0.0000207
 6,0.00003648,0.00015214,-0.00009726,-0.00004358,-0.00004400,-0.0000587
 4,0.00002634,0.00001652,0.00008817,0.00009697,-0.00004576,0.00003131,0
 .00000920,0.00067494,-0.00073653,0.00051507,-0.00148459,-0.00007940,-0
 .00026638,-0.00024174,-0.00004853,-0.00016647,-0.00044413,-0.00054844,
 -0.00035627,-0.00419057,0.01096797,0.00202183,0.00015675,0.00004031,-0
 .00014154,-0.00003066,0.00004621,0.00002633,-0.00014919,-0.00024820,-0
 .00012196,0.00016414,0.00018744,0.00011205,-0.00065415,-0.00050709,0.0
 0033370,0.00127273,0.00018847,-0.00027983,0.00014821,0.00010710,-0.000
 06349,-0.00005436,-0.00000147,0.00001510,-0.00036115,0.00008678,-0.000
 11573,0.00039156,-0.00017566,0.00009408,0.00008974,-0.00017229,0.00011
 880,0.00000159,0.00002970,-0.00014996,-0.00034884,0.00031396,-0.000262
 11,0.00035079,-0.00000726,0.00029919,-0.00006573,0.00026503,-0.0001013
 6,-0.00024626,0.00036864,0.00031204,0.00022908,-0.00017396,0.00008290,
 -0.00000599,-0.00004567,-0.00017504,-0.00001360,-0.00018109,0.00018553
 ,-0.00047353,-0.00034098,-0.00019833,0.00047980,0.00048992,0.00033175,
 0.00033378,0.00029051,0.00012745,0.00000727,0.00000771,-0.00013421,-0.
 00021107,-0.00012395,0.00006004,0.00011953,0.00011476,-0.00004153,0.00
 010093,0.00003434,0.00001642,0.00003533,0.00002865,-0.00004681,0.00002
 468,0.00001380,-0.00000552,-0.00033948,0.00019715,0.00003493,-0.000010
 26,0.00001212,0.00001244,-0.00000555,-0.00003855,0.00004311,0.00004474
 ,0.00000197,0.00003963,0.00000391,0.00001452,-0.00001119,0.00001686,0.
 00000725,0.00002416,-0.00007411,0.00001411,0.00001303,-0.00005460,-0.0
 0006590,-0.00003664,0.00001081,-0.00001741,0.00000978,0.00005448,-0.00
 000676,0.00001547,-0.00014546,0.00019943,-0.00013185,0.00016455,0.0000
 1345,0.00016016,-0.00023365,-0.00042053,-0.00057467,0.00001616,0.00000
 940,0.00002912,-0.00052836,0.00009569,-0.00010712,0.00001276,-0.000016
 39,0.00002970,-0.00002709,-0.00002217,0.00000523,0.00001193,-0.0001305
 9,-0.00000745,-0.00001955,-0.00002282,-0.00002032,0.00009047,0.0004443
 9,0.00026994,0.12382718,-0.17462550,-0.10389003,0.03117368,-0.05360014
 ,0.00268549,-0.00996110,-0.10468984,0.03050847,0.00118996,-0.03241022,
 0.01125188,0.00415417,0.01253339,-0.00852560,-0.00028164,0.00013497,0.
 00132271,0.00408047,-0.00279135,0.00121701,-0.00880110,-0.00593203,0.0
 1142324,-0.13997742,0.35376996,0.00031149,-0.00248418,0.00027174,-0.00
 011542,-0.00117374,-0.00397342,0.00017148,0.00024091,0.00049048,0.0001
 5997,0.00006917,0.00019992,-0.00055249,-0.00031201,0.00036228,-0.00051
 847,0.00028466,-0.00066939,-0.00032013,-0.00105816,0.00049067,0.002140
 57,0.00011994,0.00092717,0.00017024,-0.00001255,0.00120356,-0.00006454
 ,0.00004071,-0.00020158,-0.00007894,-0.00031489,0.00004862,0.00008275,
 0.00021040,0.00009903,0.00025753,0.00021064,0.00019451,-0.00005271,0.0
 0002211,-0.00063406,-0.00002263,-0.00007011,0.00006620,0.00002481,0.00
 017826,-0.00030447,0.00004782,0.00004691,0.00013074,0.00001105,0.00007
 955,0.00015944,-0.00001043,-0.00000764,0.00001150,0.00052947,-0.000913
 07,0.00080993,-0.00109810,0.00117917,-0.00036414,-0.00017311,0.0001959
 5,0.00016641,-0.00039082,-0.00062368,-0.00033471,0.02967711,-0.0046440
 5,-0.03959361,0.00018799,-0.00009522,0.00005464,0.00001199,0.00004426,
 0.00001423,-0.00007047,0.00036500,-0.00061869,0.00005041,-0.00014193,0
 .00028320,-0.00055822,-0.00013679,0.00009859,0.00138307,-0.00037377,0.
 00021513,-0.00004571,-0.00024629,0.00035619,0.00003332,0.00010941,0.00
 003459,0.00011923,-0.00002934,-0.00165433,0.00046737,-0.00032459,0.001
 03305,-0.00089578,-0.00021012,0.00102358,-0.00013714,-0.00002122,-0.00
 046370,0.00023081,0.00026705,0.00002081,-0.00017478,-0.00008925,0.0001
 6042,0.00048791,0.00070255,-0.00016146,-0.00047851,0.00118997,0.000324
 44,-0.00048319,-0.00018635,0.00054167,0.00027300,-0.00034367,-0.000072
 26,0.00067032,-0.00046045,-0.00018029,-0.00069389,0.00093690,-0.001307
 03,0.00060994,-0.00059821,0.00150161,0.00039271,-0.00007132,0.00045096
 ,-0.00007525,0.00001438,-0.00009883,0.00003281,0.00009195,-0.00015974,
 -0.00002887,-0.00007992,0.00014249,0.00005189,-0.00003981,0.00006701,-
 0.00001487,0.00002663,0.00013845,-0.00007904,0.00000096,-0.00009598,-0
 .00045005,0.00059252,-0.00015367,0.00003605,-0.00001672,-0.00001615,-0
 .00006296,0.00003656,-0.00006090,0.00005084,0.00000409,0.00000398,-0.0
 0005039,0.00000941,0.00001752,0.00002900,-0.00004136,0.00001353,0.0000
 7198,-0.00002001,-0.00005872,-0.00037144,-0.00016076,0.00000172,-0.000
 01521,-0.00017872,0.00009812,-0.00003389,-0.00001481,0.00011269,0.0003
 6888,0.00028167,-0.00054524,-0.00020482,0.00001579,-0.00003565,-0.0008
 4645,0.00039252,-0.00127002,-0.00003068,0.00002160,0.00006285,-0.00009
 090,0.00021960,-0.00081757,0.00003673,0.00001817,0.00004311,0.00006618
 ,0.00000104,-0.00003596,-0.00007002,-0.00005232,-0.00007617,-0.0000069
 8,-0.00000162,-0.00002093,0.00024514,0.00039067,0.00022401,0.19910025,
 -0.14903189,-0.24905762,0.01283539,-0.01059680,0.00915445,0.02243401,0
 .06255873,-0.12546584,0.00557676,0.02108600,-0.01506990,0.01308522,0.0
 2295401,-0.02430989,-0.00177456,-0.00055640,0.00052966,-0.00255318,0.0
 0183161,-0.00070381,0.00717050,0.00440998,0.00023118,-0.28599893,0.054
 28235,0.44599969\\0.00000248,0.00000228,0.00000214,0.00000579,-0.00000
 261,0.00000002,-0.00000175,-0.00000213,-0.00000114,0.00000045,-0.00000
 161,-0.00000012,0.00000042,-0.00000230,-0.00000035,-0.00000093,-0.0000
 0241,-0.00000080,0.00000116,0.00000449,-0.00000052,-0.00000179,0.00000
 264,-0.00000165,-0.00000058,-0.00000384,-0.00000126,0.00000116,-0.0000
 0145,-0.00000401,0.00000080,-0.00000223,-0.00000486,0.00000023,0.00000
 048,0.00000307,-0.00000058,0.00000081,0.00000044,0.00000024,-0.0000007
 5,0.00000182,-0.00000033,-0.00000289,0.00000209,0.00000112,0.00000064,
 -0.00000572,0.00000099,-0.00000071,-0.00000718,-0.00000019,-0.00000023
 ,-0.00000462,0.00000165,-0.00000049,-0.00000318,-0.00000243,0.00000397
 ,-0.00000115,-0.00000045,0.00000274,0.00000097,0.00000061,0.00000320,-
 0.00000166,0.00000100,0.00000119,-0.00000436,0.00000391,0.00000168,0.0
 0000492,0.00000022,0.00000310,0.00000132,-0.00000364,0.00000448,-0.000
 00310,0.00000905,0.00000197,-0.00000150,-0.00000329,-0.00000018,0.0000
 0030,-0.00000154,0.00000237,0.00000105,-0.00000002,0.00000239,-0.00000
 078,-0.00000249,0.00000466,-0.00000142,0.00000121,0.00000457,-0.000008
 30,0.00000094,-0.00001473,-0.00000176,0.00000100,0.00000860,-0.0000020
 0,-0.00000673,0.00000406,-0.00000731,0.00000471,-0.00000158,-0.0000010
 7,-0.00000690,-0.00000151,0.00001031,0.00000276,-0.00000183,-0.0000057
 6,-0.00000084,0.00000016,-0.00000718,0.00000240,-0.00000608,-0.0000033
 1,0.00000362,0.00000096,-0.00000359,-0.00000222,-0.00000138,0.00000464
 ,-0.00000067,-0.00000171,0.00000618,0.00000607,-0.00000457,-0.00000741
 ,-0.00000458,0.00000384,0.00000890,0.00000209,-0.00001132,-0.00000013,
 -0.00000380,0.00000033,0.00000259,0.00000157,-0.00000771,-0.00000025,-
 0.00000129,0.00000356,0.00000585,0.00000089,-0.00000095,0.00000142,-0.
 00000031,0.00000480,0.00000137,-0.00000292,0.00000352,0.00000236,0.000
 00277,0.00000435,-0.00000084,-0.00000093,0.00000510,-0.00000176,0.0000
 0041,0.00000621,0.00000149,-0.00000134,0.00000661,0.00000006,0.0000001
 2,0.00000374,-0.00000373,-0.00000120,0.00000249,-0.00000538,0.00000211
 ,-0.00000071,-0.00000254,0.00000047,-0.00000152,-0.00000502,0.00000092
 ,-0.00000557,-0.00000551,-0.00000142,-0.00000294,-0.00000413,0.0000022
 3,-0.00000203,-0.00000239,0.00000067,-0.00000449,0.00000253,0.00000147
 ,-0.00000471,0.00000315,0.00000031,-0.00000500,0.00000174,0.00000069,0
 .00000115,0.00000285,0.00000110,-0.00000121,0.00000495,0.00000059,-0.0
 0000182,0.00000220,-0.00000277,0.00000302,0.00000821,-0.00000122,-0.00
 000105,0.00000334,-0.00000187,-0.00000737,-0.00000264,-0.00000742,-0.0
 0000662,-0.00000278,-0.00000141,-0.00000073,0.00000620,-0.00000033,0.0
 0000867,-0.00000133,0.00000220,0.00000179,0.00001031,-0.00000004,0.000
 00282,0.00000610,-0.00000110,0.00000291,0.00000545,-0.00000122,0.00000
 249,0.00000567,0.00000330,0.00000008,0.00000515,-0.00000536,-0.0000059
 9,0.00000435\\\@


 HICKORY, DICKORY, DOCK
 TWO MICE RAN UP THE CLOCK
 THE CLOCK STRUCK ONE...
 THE OTHER ESCAPED WITH MINOR INJURIES.
 Job cpu time:       0 days 12 hours 53 minutes 37.1 seconds.
 File lengths (MBytes):  RWF=   5126 Int=      0 D2E=      0 Chk=     41 Scr=      1
 Normal termination of Gaussian 09 at Wed May  3 21:46:21 2023.
