 Entering Gaussian System, Link 0=g09
 Input=AF23-helio.com
 Output=AF23-helio.log
 Initial command:
 /home/scr/programs/g09/l1.exe "/home/scr/guest2/Gau-13025.inp" -scrdir="/home/scr/guest2/"
 Entering Link 1 = /home/scr/programs/g09/l1.exe PID=     13026.
  
 Copyright (c) 1988,1990,1992,1993,1995,1998,2003,2009,2013,
            Gaussian, Inc.  All Rights Reserved.
  
 This is part of the Gaussian(R) 09 program.  It is based on
 the Gaussian(R) 03 system (copyright 2003, Gaussian, Inc.),
 the Gaussian(R) 98 system (copyright 1998, Gaussian, Inc.),
 the Gaussian(R) 94 system (copyright 1995, Gaussian, Inc.),
 the Gaussian 92(TM) system (copyright 1992, Gaussian, Inc.),
 the Gaussian 90(TM) system (copyright 1990, Gaussian, Inc.),
 the Gaussian 88(TM) system (copyright 1988, Gaussian, Inc.),
 the Gaussian 86(TM) system (copyright 1986, Carnegie Mellon
 University), and the Gaussian 82(TM) system (copyright 1983,
 Carnegie Mellon University). Gaussian is a federally registered
 trademark of Gaussian, Inc.
  
 This software contains proprietary and confidential information,
 including trade secrets, belonging to Gaussian, Inc.
  
 This software is provided under written license and may be
 used, copied, transmitted, or stored only in accord with that
 written license.
  
 The following legend is applicable only to US Government
 contracts under FAR:
  
                    RESTRICTED RIGHTS LEGEND
  
 Use, reproduction and disclosure by the US Government is
 subject to restrictions as set forth in subparagraphs (a)
 and (c) of the Commercial Computer Software - Restricted
 Rights clause in FAR 52.227-19.
  
 Gaussian, Inc.
 340 Quinnipiac St., Bldg. 40, Wallingford CT 06492
  
  
 ---------------------------------------------------------------
 Warning -- This program may not be used in any manner that
 competes with the business of Gaussian, Inc. or will provide
 assistance to any competitor of Gaussian, Inc.  The licensee
 of this program is prohibited from giving any competitor of
 Gaussian, Inc. access to this program.  By using this program,
 the user acknowledges that Gaussian, Inc. is engaged in the
 business of creating and licensing software in the field of
 computational chemistry and represents and warrants to the
 licensee that it is not a competitor of Gaussian, Inc. and that
 it will not use this program in any manner prohibited above.
 ---------------------------------------------------------------
  

 Cite this work as:
 Gaussian 09, Revision D.01,
 M. J. Frisch, G. W. Trucks, H. B. Schlegel, G. E. Scuseria, 
 M. A. Robb, J. R. Cheeseman, G. Scalmani, V. Barone, B. Mennucci, 
 G. A. Petersson, H. Nakatsuji, M. Caricato, X. Li, H. P. Hratchian, 
 A. F. Izmaylov, J. Bloino, G. Zheng, J. L. Sonnenberg, M. Hada, 
 M. Ehara, K. Toyota, R. Fukuda, J. Hasegawa, M. Ishida, T. Nakajima, 
 Y. Honda, O. Kitao, H. Nakai, T. Vreven, J. A. Montgomery, Jr., 
 J. E. Peralta, F. Ogliaro, M. Bearpark, J. J. Heyd, E. Brothers, 
 K. N. Kudin, V. N. Staroverov, T. Keith, R. Kobayashi, J. Normand, 
 K. Raghavachari, A. Rendell, J. C. Burant, S. S. Iyengar, J. Tomasi, 
 M. Cossi, N. Rega, J. M. Millam, M. Klene, J. E. Knox, J. B. Cross, 
 V. Bakken, C. Adamo, J. Jaramillo, R. Gomperts, R. E. Stratmann, 
 O. Yazyev, A. J. Austin, R. Cammi, C. Pomelli, J. W. Ochterski, 
 R. L. Martin, K. Morokuma, V. G. Zakrzewski, G. A. Voth, 
 P. Salvador, J. J. Dannenberg, S. Dapprich, A. D. Daniels, 
 O. Farkas, J. B. Foresman, J. V. Ortiz, J. Cioslowski, 
 and D. J. Fox, Gaussian, Inc., Wallingford CT, 2013.
 
 ******************************************
 Gaussian 09:  EM64L-G09RevD.01 24-Apr-2013
                 2-May-2023 
 ******************************************
 %mem=30000MB
 %nprocshared=8
 Will use up to    8 processors via shared memory.
 ----------------------------------------
 # opt freq=noraman b3lyp/gen pseudo=read
 ----------------------------------------
 1/14=-1,18=20,19=15,26=3,38=1/1,3;
 2/9=110,12=2,17=6,18=5,40=1/2;
 3/5=7,11=2,16=1,17=8,25=1,30=1,71=1,74=-5/1,2,3;
 4//1;
 5/5=2,38=5/2;
 6/7=2,8=2,9=2,10=2,28=1/1;
 7//1,2,3,16;
 1/14=-1,18=20,19=15,26=3/3(2);
 2/9=110/2;
 99//99;
 2/9=110/2;
 3/5=7,6=1,11=2,16=1,17=8,25=1,30=1,71=1,74=-5,82=7/1,2,3;
 4/5=5,16=3,69=1/1;
 5/5=2,38=5/2;
 7//1,2,3,16;
 1/14=-1,18=20,19=15,26=3/3(-5);
 2/9=110/2;
 6/7=2,8=2,9=2,10=2,19=2,28=1/1;
 99/9=1/99;
 --
 af
 --
 Symbolic Z-matrix:
 Charge =  0 Multiplicity = 1
 Au                    0.12898  -0.56454   0.00574 
 S                    -1.9633   -1.6222   -0.09374 
 P                     2.21788   0.3843    0.09599 
 C                     2.6609    1.03657   1.74661 
 C                     2.49152   0.02198   2.87429 
 H                     2.01543   1.90677   1.91178 
 H                     3.69345   1.40123   1.70238 
 H                     2.72532   0.48871   3.836 
 H                     1.46314  -0.35123   2.91732 
 H                     3.15947  -0.8362    2.75266 
 C                     3.54756  -0.79709  -0.33089 
 C                     3.41034  -1.39178  -1.72946 
 H                     3.50755  -1.58718   0.42646 
 H                     4.50982  -0.28596  -0.20955 
 H                     4.19862  -2.13059  -1.90242 
 H                     2.44372  -1.89089  -1.85364 
 H                     3.49786  -0.62601  -2.50662 
 C                     2.37834   1.79903  -1.05527 
 C                     3.74257   2.48019  -1.11116 
 H                     1.59718   2.50814  -0.75808 
 H                     2.08722   1.42224  -2.04199 
 H                     3.71246   3.30294  -1.83234 
 H                     4.02948   2.90079  -0.14307 
 H                     4.53085   1.79216  -1.43117 
 C                    -3.1412   -0.33655  -0.08353 
 C                    -5.16459   0.68873  -0.18913 
 C                    -4.29901   1.90218   0.18583 
 H                    -5.49689   0.76427  -1.23492 
 H                    -6.06405   0.65028   0.43407 
 H                    -4.54525   2.78943  -0.39994 
 H                    -4.37055   2.14238   1.25013 
 N                    -4.40001  -0.53894  -0.04224 
 S                    -2.60615   1.36133  -0.17865 
 

 GradGradGradGradGradGradGradGradGradGradGradGradGradGradGradGradGradGrad
 Berny optimization.
 Initialization pass.
                           ----------------------------
                           !    Initial Parameters    !
                           ! (Angstroms and Degrees)  !
 --------------------------                            --------------------------
 ! Name  Definition              Value          Derivative Info.                !
 --------------------------------------------------------------------------------
 ! R1    R(1,2)                  2.3465         estimate D2E/DX2                !
 ! R2    R(1,3)                  2.2961         estimate D2E/DX2                !
 ! R3    R(2,25)                 1.7437         estimate D2E/DX2                !
 ! R4    R(3,4)                  1.8293         estimate D2E/DX2                !
 ! R5    R(3,11)                 1.8292         estimate D2E/DX2                !
 ! R6    R(3,18)                 1.831          estimate D2E/DX2                !
 ! R7    R(4,5)                  1.5264         estimate D2E/DX2                !
 ! R8    R(4,6)                  1.096          estimate D2E/DX2                !
 ! R9    R(4,7)                  1.0959         estimate D2E/DX2                !
 ! R10   R(5,8)                  1.0942         estimate D2E/DX2                !
 ! R11   R(5,9)                  1.0949         estimate D2E/DX2                !
 ! R12   R(5,10)                 1.0943         estimate D2E/DX2                !
 ! R13   R(11,12)                1.5259         estimate D2E/DX2                !
 ! R14   R(11,13)                1.0952         estimate D2E/DX2                !
 ! R15   R(11,14)                1.0963         estimate D2E/DX2                !
 ! R16   R(12,15)                1.0941         estimate D2E/DX2                !
 ! R17   R(12,16)                1.0949         estimate D2E/DX2                !
 ! R18   R(12,17)                1.0945         estimate D2E/DX2                !
 ! R19   R(18,19)                1.5259         estimate D2E/DX2                !
 ! R20   R(18,20)                1.0961         estimate D2E/DX2                !
 ! R21   R(18,21)                1.0956         estimate D2E/DX2                !
 ! R22   R(19,22)                1.0945         estimate D2E/DX2                !
 ! R23   R(19,23)                1.0938         estimate D2E/DX2                !
 ! R24   R(19,24)                1.0942         estimate D2E/DX2                !
 ! R25   R(25,32)                1.2756         estimate D2E/DX2                !
 ! R26   R(25,33)                1.7827         estimate D2E/DX2                !
 ! R27   R(26,27)                1.537          estimate D2E/DX2                !
 ! R28   R(26,28)                1.0999         estimate D2E/DX2                !
 ! R29   R(26,29)                1.0949         estimate D2E/DX2                !
 ! R30   R(26,32)                1.4537         estimate D2E/DX2                !
 ! R31   R(27,30)                1.0913         estimate D2E/DX2                !
 ! R32   R(27,31)                1.0934         estimate D2E/DX2                !
 ! R33   R(27,33)                1.8142         estimate D2E/DX2                !
 ! A1    A(1,2,25)             105.6497         estimate D2E/DX2                !
 ! A2    A(1,3,4)              113.7753         estimate D2E/DX2                !
 ! A3    A(1,3,11)             112.66           estimate D2E/DX2                !
 ! A4    A(1,3,18)             111.9817         estimate D2E/DX2                !
 ! A5    A(4,3,11)             105.3559         estimate D2E/DX2                !
 ! A6    A(4,3,18)             105.7012         estimate D2E/DX2                !
 ! A7    A(11,3,18)            106.7731         estimate D2E/DX2                !
 ! A8    A(3,4,5)              113.7508         estimate D2E/DX2                !
 ! A9    A(3,4,6)              106.0495         estimate D2E/DX2                !
 ! A10   A(3,4,7)              108.0835         estimate D2E/DX2                !
 ! A11   A(5,4,6)              110.5532         estimate D2E/DX2                !
 ! A12   A(5,4,7)              110.8266         estimate D2E/DX2                !
 ! A13   A(6,4,7)              107.2644         estimate D2E/DX2                !
 ! A14   A(4,5,8)              110.0047         estimate D2E/DX2                !
 ! A15   A(4,5,9)              111.0913         estimate D2E/DX2                !
 ! A16   A(4,5,10)             111.8046         estimate D2E/DX2                !
 ! A17   A(8,5,9)              108.1525         estimate D2E/DX2                !
 ! A18   A(8,5,10)             107.5642         estimate D2E/DX2                !
 ! A19   A(9,5,10)             108.0818         estimate D2E/DX2                !
 ! A20   A(3,11,12)            113.5917         estimate D2E/DX2                !
 ! A21   A(3,11,13)            106.1409         estimate D2E/DX2                !
 ! A22   A(3,11,14)            108.1253         estimate D2E/DX2                !
 ! A23   A(12,11,13)           110.4488         estimate D2E/DX2                !
 ! A24   A(12,11,14)           111.2271         estimate D2E/DX2                !
 ! A25   A(13,11,14)           106.9699         estimate D2E/DX2                !
 ! A26   A(11,12,15)           110.0749         estimate D2E/DX2                !
 ! A27   A(11,12,16)           111.1605         estimate D2E/DX2                !
 ! A28   A(11,12,17)           111.7724         estimate D2E/DX2                !
 ! A29   A(15,12,16)           108.077          estimate D2E/DX2                !
 ! A30   A(15,12,17)           107.6118         estimate D2E/DX2                !
 ! A31   A(16,12,17)           107.9975         estimate D2E/DX2                !
 ! A32   A(3,18,19)            116.5067         estimate D2E/DX2                !
 ! A33   A(3,18,20)            105.4818         estimate D2E/DX2                !
 ! A34   A(3,18,21)            106.097          estimate D2E/DX2                !
 ! A35   A(19,18,20)           110.9972         estimate D2E/DX2                !
 ! A36   A(19,18,21)           110.984          estimate D2E/DX2                !
 ! A37   A(20,18,21)           106.1002         estimate D2E/DX2                !
 ! A38   A(18,19,22)           109.5794         estimate D2E/DX2                !
 ! A39   A(18,19,23)           111.9474         estimate D2E/DX2                !
 ! A40   A(18,19,24)           111.9707         estimate D2E/DX2                !
 ! A41   A(22,19,23)           107.5382         estimate D2E/DX2                !
 ! A42   A(22,19,24)           107.4461         estimate D2E/DX2                !
 ! A43   A(23,19,24)           108.1605         estimate D2E/DX2                !
 ! A44   A(2,25,32)            123.355          estimate D2E/DX2                !
 ! A45   A(2,25,33)            119.9445         estimate D2E/DX2                !
 ! A46   A(32,25,33)           116.6794         estimate D2E/DX2                !
 ! A47   A(27,26,28)           110.3574         estimate D2E/DX2                !
 ! A48   A(27,26,29)           110.5795         estimate D2E/DX2                !
 ! A49   A(27,26,32)           110.2359         estimate D2E/DX2                !
 ! A50   A(28,26,29)           107.1809         estimate D2E/DX2                !
 ! A51   A(28,26,32)           108.2378         estimate D2E/DX2                !
 ! A52   A(29,26,32)           110.1748         estimate D2E/DX2                !
 ! A53   A(26,27,30)           112.5733         estimate D2E/DX2                !
 ! A54   A(26,27,31)           111.9659         estimate D2E/DX2                !
 ! A55   A(26,27,33)           103.9536         estimate D2E/DX2                !
 ! A56   A(30,27,31)           109.2139         estimate D2E/DX2                !
 ! A57   A(30,27,33)           110.1874         estimate D2E/DX2                !
 ! A58   A(31,27,33)           108.7898         estimate D2E/DX2                !
 ! A59   A(25,32,26)           112.4425         estimate D2E/DX2                !
 ! A60   A(25,33,27)            89.6075         estimate D2E/DX2                !
 ! A61   L(2,1,3,9,-1)         179.8574         estimate D2E/DX2                !
 ! A62   L(2,1,3,9,-2)         177.3407         estimate D2E/DX2                !
 ! D1    D(25,2,3,4)            75.202          estimate D2E/DX2                !
 ! D2    D(25,2,3,11)         -165.5697         estimate D2E/DX2                !
 ! D3    D(25,2,3,18)          -45.4647         estimate D2E/DX2                !
 ! D4    D(1,2,25,32)         -175.3824         estimate D2E/DX2                !
 ! D5    D(1,2,25,33)            6.3418         estimate D2E/DX2                !
 ! D6    D(1,3,4,5)             52.5802         estimate D2E/DX2                !
 ! D7    D(1,3,4,6)            -69.1356         estimate D2E/DX2                !
 ! D8    D(1,3,4,7)            176.1055         estimate D2E/DX2                !
 ! D9    D(11,3,4,5)           -71.3068         estimate D2E/DX2                !
 ! D10   D(11,3,4,6)           166.9775         estimate D2E/DX2                !
 ! D11   D(11,3,4,7)            52.2186         estimate D2E/DX2                !
 ! D12   D(18,3,4,5)           175.8591         estimate D2E/DX2                !
 ! D13   D(18,3,4,6)            54.1434         estimate D2E/DX2                !
 ! D14   D(18,3,4,7)           -60.6155         estimate D2E/DX2                !
 ! D15   D(1,3,11,12)           59.1959         estimate D2E/DX2                !
 ! D16   D(1,3,11,13)          -62.3558         estimate D2E/DX2                !
 ! D17   D(1,3,11,14)         -176.8402         estimate D2E/DX2                !
 ! D18   D(4,3,11,12)         -176.2141         estimate D2E/DX2                !
 ! D19   D(4,3,11,13)           62.2342         estimate D2E/DX2                !
 ! D20   D(4,3,11,14)          -52.2502         estimate D2E/DX2                !
 ! D21   D(18,3,11,12)         -64.1354         estimate D2E/DX2                !
 ! D22   D(18,3,11,13)         174.3129         estimate D2E/DX2                !
 ! D23   D(18,3,11,14)          59.8285         estimate D2E/DX2                !
 ! D24   D(1,3,18,19)         -178.1363         estimate D2E/DX2                !
 ! D25   D(1,3,18,20)           58.2474         estimate D2E/DX2                !
 ! D26   D(1,3,18,21)          -54.0511         estimate D2E/DX2                !
 ! D27   D(4,3,18,19)           57.4559         estimate D2E/DX2                !
 ! D28   D(4,3,18,20)          -66.1604         estimate D2E/DX2                !
 ! D29   D(4,3,18,21)         -178.4589         estimate D2E/DX2                !
 ! D30   D(11,3,18,19)         -54.385          estimate D2E/DX2                !
 ! D31   D(11,3,18,20)        -178.0012         estimate D2E/DX2                !
 ! D32   D(11,3,18,21)          69.7003         estimate D2E/DX2                !
 ! D33   D(3,4,5,8)           -177.2479         estimate D2E/DX2                !
 ! D34   D(3,4,5,9)            -57.5271         estimate D2E/DX2                !
 ! D35   D(3,4,5,10)            63.3098         estimate D2E/DX2                !
 ! D36   D(6,4,5,8)            -58.0671         estimate D2E/DX2                !
 ! D37   D(6,4,5,9)             61.6537         estimate D2E/DX2                !
 ! D38   D(6,4,5,10)          -177.5094         estimate D2E/DX2                !
 ! D39   D(7,4,5,8)             60.732          estimate D2E/DX2                !
 ! D40   D(7,4,5,9)           -179.5472         estimate D2E/DX2                !
 ! D41   D(7,4,5,10)           -58.7103         estimate D2E/DX2                !
 ! D42   D(3,11,12,15)        -176.727          estimate D2E/DX2                !
 ! D43   D(3,11,12,16)         -57.0102         estimate D2E/DX2                !
 ! D44   D(3,11,12,17)          63.7449         estimate D2E/DX2                !
 ! D45   D(13,11,12,15)        -57.61           estimate D2E/DX2                !
 ! D46   D(13,11,12,16)         62.1068         estimate D2E/DX2                !
 ! D47   D(13,11,12,17)       -177.1381         estimate D2E/DX2                !
 ! D48   D(14,11,12,15)         61.01           estimate D2E/DX2                !
 ! D49   D(14,11,12,16)       -179.2732         estimate D2E/DX2                !
 ! D50   D(14,11,12,17)        -58.518          estimate D2E/DX2                !
 ! D51   D(3,18,19,22)         179.8445         estimate D2E/DX2                !
 ! D52   D(3,18,19,23)         -60.9366         estimate D2E/DX2                !
 ! D53   D(3,18,19,24)          60.7258         estimate D2E/DX2                !
 ! D54   D(20,18,19,22)        -59.4305         estimate D2E/DX2                !
 ! D55   D(20,18,19,23)         59.7885         estimate D2E/DX2                !
 ! D56   D(20,18,19,24)       -178.5491         estimate D2E/DX2                !
 ! D57   D(21,18,19,22)         58.3023         estimate D2E/DX2                !
 ! D58   D(21,18,19,23)        177.5212         estimate D2E/DX2                !
 ! D59   D(21,18,19,24)        -60.8163         estimate D2E/DX2                !
 ! D60   D(2,25,32,26)        -173.7682         estimate D2E/DX2                !
 ! D61   D(33,25,32,26)          4.5597         estimate D2E/DX2                !
 ! D62   D(2,25,33,27)        -170.5664         estimate D2E/DX2                !
 ! D63   D(32,25,33,27)         11.0454         estimate D2E/DX2                !
 ! D64   D(28,26,27,30)         27.5032         estimate D2E/DX2                !
 ! D65   D(28,26,27,31)        151.0054         estimate D2E/DX2                !
 ! D66   D(28,26,27,33)        -91.7309         estimate D2E/DX2                !
 ! D67   D(29,26,27,30)        -90.9124         estimate D2E/DX2                !
 ! D68   D(29,26,27,31)         32.5899         estimate D2E/DX2                !
 ! D69   D(29,26,27,33)        149.8535         estimate D2E/DX2                !
 ! D70   D(32,26,27,30)        147.0118         estimate D2E/DX2                !
 ! D71   D(32,26,27,31)        -89.486          estimate D2E/DX2                !
 ! D72   D(32,26,27,33)         27.7777         estimate D2E/DX2                !
 ! D73   D(27,26,32,25)        -21.8093         estimate D2E/DX2                !
 ! D74   D(28,26,32,25)         98.9773         estimate D2E/DX2                !
 ! D75   D(29,26,32,25)       -144.1239         estimate D2E/DX2                !
 ! D76   D(26,27,33,25)        -20.9542         estimate D2E/DX2                !
 ! D77   D(30,27,33,25)       -141.8035         estimate D2E/DX2                !
 ! D78   D(31,27,33,25)         98.4957         estimate D2E/DX2                !
 --------------------------------------------------------------------------------
 Trust Radius=3.00D-01 FncErr=1.00D-07 GrdErr=1.00D-06
 Number of steps in this run=    183 maximum allowed number of steps=    198.
 GradGradGradGradGradGradGradGradGradGradGradGradGradGradGradGradGradGrad

                          Input orientation:                          
 ---------------------------------------------------------------------
 Center     Atomic      Atomic             Coordinates (Angstroms)
 Number     Number       Type             X           Y           Z
 ---------------------------------------------------------------------
      1         79           0        0.128983   -0.564544    0.005740
      2         16           0       -1.963301   -1.622195   -0.093744
      3         15           0        2.217877    0.384304    0.095985
      4          6           0        2.660904    1.036573    1.746606
      5          6           0        2.491523    0.021984    2.874293
      6          1           0        2.015428    1.906768    1.911778
      7          1           0        3.693448    1.401226    1.702376
      8          1           0        2.725322    0.488707    3.836003
      9          1           0        1.463142   -0.351233    2.917316
     10          1           0        3.159468   -0.836196    2.752659
     11          6           0        3.547562   -0.797087   -0.330886
     12          6           0        3.410338   -1.391775   -1.729464
     13          1           0        3.507555   -1.587175    0.426458
     14          1           0        4.509816   -0.285964   -0.209547
     15          1           0        4.198618   -2.130590   -1.902421
     16          1           0        2.443719   -1.890885   -1.853643
     17          1           0        3.497860   -0.626011   -2.506624
     18          6           0        2.378337    1.799028   -1.055274
     19          6           0        3.742572    2.480191   -1.111165
     20          1           0        1.597175    2.508142   -0.758084
     21          1           0        2.087221    1.422243   -2.041986
     22          1           0        3.712459    3.302941   -1.832340
     23          1           0        4.029479    2.900790   -0.143072
     24          1           0        4.530849    1.792162   -1.431170
     25          6           0       -3.141202   -0.336554   -0.083529
     26          6           0       -5.164592    0.688730   -0.189125
     27          6           0       -4.299014    1.902176    0.185825
     28          1           0       -5.496892    0.764265   -1.234919
     29          1           0       -6.064046    0.650280    0.434067
     30          1           0       -4.545251    2.789425   -0.399937
     31          1           0       -4.370547    2.142377    1.250128
     32          7           0       -4.400010   -0.538935   -0.042236
     33         16           0       -2.606146    1.361328   -0.178651
 ---------------------------------------------------------------------
                    Distance matrix (angstroms):
                    1          2          3          4          5
     1  Au   0.000000
     2  S    2.346524   0.000000
     3  P    2.296069   4.641582   0.000000
     4  C    3.464796   5.642624   1.829283   0.000000
     5  C    3.762208   5.599824   2.815165   1.526355   0.000000
     6  H    3.646785   5.683835   2.378232   1.095975   2.169219
     7  H    4.410015   6.660776   2.406643   1.095936   2.172630
     8  H    4.745654   6.471631   3.775730   2.160992   1.094248
     9  H    3.209791   4.735223   3.011735   2.175132   1.094856
    10  H    4.099170   5.912915   3.071503   2.183569   1.094266
    11  C    3.442975   5.577334   1.829198   2.909372   3.472646
    12  C    3.802964   5.621803   2.812238   4.305994   4.902807
    13  H    3.554930   5.495644   2.378910   3.056740   3.100582
    14  H    4.394958   6.610610   2.407404   2.999019   3.698433
    15  H    4.759780   6.441974   3.773812   5.070590   5.510421
    16  H    3.251844   4.753027   3.004753   4.645317   5.100464
    17  H    4.202985   6.052987   3.071265   4.642698   5.512430
    18  C    3.431008   5.610626   1.831008   2.917484   4.314185
    19  C    4.855503   7.100824   2.859134   3.379481   4.846832
    20  H    3.490045   5.493453   2.371791   3.093624   4.491659
    21  H    3.460520   5.428718   2.380191   3.851140   5.127766
    22  H    5.583662   7.713231   3.804031   4.364750   5.865813
    23  H    5.219632   7.508211   3.109944   2.986501   4.444921
    24  H    5.195690   7.457917   3.108715   3.763757   5.082263
    25  C    3.279338   1.743682   5.410322   6.236931   6.372194
    26  C    5.443400   3.949397   7.394242   8.068856   8.273160
    27  C    5.071912   4.237323   6.691926   7.185107   7.541510
    28  H    5.912312   4.414039   7.837942   8.689838   9.013955
    29  H    6.325573   4.717927   8.293087   8.831576   8.918925
    30  H    5.767334   5.120802   7.195168   7.720674   8.239873
    31  H    5.396452   4.666136   6.915938   7.135166   7.363558
    32  N    4.529319   2.667144   6.683405   7.452428   7.504265
    33  S    3.350211   3.053173   4.929625   5.617285   6.091021
                    6          7          8          9         10
     6  H    0.000000
     7  H    1.764985   0.000000
     8  H    2.493489   2.514423   0.000000
     9  H    2.532725   3.085686   1.772733   0.000000
    10  H    3.088650   2.528693   1.765640   1.771955   0.000000
    11  C    3.832468   2.998002   4.437602   3.885152   3.108118
    12  C    5.107328   4.433794   5.914379   5.144596   4.523387
    13  H    4.079247   3.254699   4.067699   3.451311   2.469078
    14  H    3.940820   2.677409   4.488988   4.366206   3.301645
    15  H    5.967805   5.071832   6.477718   5.820550   4.942171
    16  H    5.365072   5.004507   6.173640   5.108239   4.779402
    17  H    5.304229   4.675856   6.486010   5.799544   5.274348
    18  C    2.991105   3.080973   5.075621   4.608978   4.696267
    19  C    3.528459   3.013734   5.429114   5.425995   5.125190
    20  H    2.768528   3.416648   5.143585   4.658600   5.094180
    21  H    3.983989   4.074390   5.985768   5.303713   5.407299
    22  H    4.341386   4.013863   6.405034   6.400910   6.201651
    23  H    3.044157   2.401518   4.832392   5.150506   4.806999
    24  H    4.185186   3.266984   5.718569   5.737098   5.127707
    25  C    5.966957   7.274736   7.103513   5.495932   6.927629
    26  C    7.579584   9.085720   8.859594   7.393129   8.959323
    27  C    6.546076   8.150480   8.041330   6.763234   8.349627
    28  H    8.224474   9.669321   9.664108   8.180921   9.664100
    29  H    8.309049   9.868192   9.426148   7.989250   9.625938
    30  H    7.011820   8.615276   8.723401   7.547760   9.080016
    31  H    6.424482   8.110601   7.731283   6.559690   8.235935
    32  N    7.138451   8.503644   8.177233   6.570444   8.065080
    33  S    5.101602   6.574552   6.730785   5.392308   6.831105
                   11         12         13         14         15
    11  C    0.000000
    12  C    1.525944   0.000000
    13  H    1.095176   2.166941   0.000000
    14  H    1.096313   2.177571   1.761301   0.000000
    15  H    2.161441   1.094142   2.489286   2.522957   0.000000
    16  H    2.175696   1.094935   2.534334   3.089916   1.771866
    17  H    2.183019   1.094547   3.086568   2.533032   1.766318
    18  C    2.937965   3.420641   3.864846   3.099298   4.412820
    19  C    3.374524   3.935072   4.354651   3.008852   4.700358
    20  H    3.861482   4.409137   4.671650   4.073254   5.440115
    21  H    3.160045   3.125221   4.143327   3.484935   4.135226
    22  H    4.369415   4.705552   5.390491   4.018641   5.455687
    23  H    3.733874   4.618018   4.553965   3.223437   5.332795
    24  H    2.980216   3.388507   3.989716   2.410687   3.964901
    25  C    6.709161   6.837051   6.784549   7.652223   7.771737
    26  C    8.839082   8.957152   8.986925   9.723406   9.927419
    27  C    8.313950   8.599567   8.554297   9.085140   9.635026
    28  H    9.222648   9.177790   9.453545  10.113781  10.140447
    29  H    9.750027   9.930499   9.829639  10.634724  10.886445
    30  H    8.852201   9.085234   9.202458   9.564962  10.144913
    31  H    8.592817   9.050435   8.755140   9.321391  10.081042
    32  N    7.957001   8.035895   7.990498   8.914987   8.940361
    33  S    6.523040   6.795784   6.814482   7.304207   7.840261
                   16         17         18         19         20
    16  H    0.000000
    17  H    1.771300   0.000000
    18  C    3.775861   3.039829   0.000000
    19  C    4.620021   3.414042   1.525858   0.000000
    20  H    4.611759   4.061146   1.096074   2.174437   0.000000
    21  H    3.337571   2.530047   1.095589   2.173906   1.751493
    22  H    5.346586   3.992164   2.155335   1.094494   2.502031
    23  H    5.329244   4.278706   2.184551   1.093811   2.539393
    24  H    4.254343   2.840991   2.185098   1.094152   3.093884
    25  C    6.061402   7.073353   5.997525   7.508424   5.567723
    26  C    8.204354   9.062970   7.673249   9.132199   7.025345
    27  C    8.000699   8.627413   6.792495   8.165990   6.001933
    28  H    8.395591   9.189976   7.944951   9.398266   7.320810
    29  H    9.169144  10.084970   8.649369  10.094854   7.972903
    30  H    8.536057   8.988602   7.024701   8.324030   6.159285
    31  H    8.504988   9.148168   7.140042   8.456508   6.307171
    32  N    7.207329   8.273883   7.241430   8.749821   6.764861
    33  S    6.235674   6.828460   5.079874   6.513652   4.395319
                   21         22         23         24         25
    21  H    0.000000
    22  H    2.494469   0.000000
    23  H    3.092627   1.765178   0.000000
    24  H    2.545831   1.764413   1.771899   0.000000
    25  C    5.853659   7.954680   7.867821   8.075143   0.000000
    26  C    7.520633   9.398739   9.456547   9.836758   2.270785
    27  C    6.780669   8.379668   8.394593   8.977375   2.534757
    28  H    7.655264   9.571517   9.823880  10.082196   2.843726
    29  H    8.553942  10.380427  10.357467  10.818263   3.128061
    30  H    6.968156   8.396741   8.579299   9.188774   3.441397
    31  H    7.284187   8.728316   8.548487   9.303057   3.071649
    32  N    7.066073   9.152958   9.104843   9.333991   1.275641
    33  S    5.050091   6.813906   6.811955   7.258865   1.782733
                   26         27         28         29         30
    26  C    0.000000
    27  C    1.536966   0.000000
    28  H    1.099915   2.179052   0.000000
    29  H    1.094927   2.178120   1.766400   0.000000
    30  H    2.200215   1.091311   2.388323   2.752861   0.000000
    31  H    2.194321   1.093414   3.056682   2.400052   1.780985
    32  N    1.453727   2.453820   2.079417   2.100027   3.350675
    33  S    2.645400   1.814156   3.135060   3.583027   2.418379
                   31         32         33
    31  H    0.000000
    32  N    2.976660   0.000000
    33  S    2.400949   2.616784   0.000000
 Stoichiometry    C9H19AuNPS2
 Framework group  C1[X(C9H19AuNPS2)]
 Deg. of freedom    93
 Full point group                 C1      NOp   1
 Largest Abelian subgroup         C1      NOp   1
 Largest concise Abelian subgroup C1      NOp   1
                         Standard orientation:                         
 ---------------------------------------------------------------------
 Center     Atomic      Atomic             Coordinates (Angstroms)
 Number     Number       Type             X           Y           Z
 ---------------------------------------------------------------------
      1         79           0        0.128983   -0.564544    0.005740
      2         16           0       -1.963301   -1.622195   -0.093744
      3         15           0        2.217877    0.384304    0.095985
      4          6           0        2.660904    1.036573    1.746606
      5          6           0        2.491523    0.021984    2.874293
      6          1           0        2.015428    1.906768    1.911778
      7          1           0        3.693448    1.401226    1.702376
      8          1           0        2.725322    0.488707    3.836003
      9          1           0        1.463142   -0.351233    2.917316
     10          1           0        3.159468   -0.836196    2.752659
     11          6           0        3.547562   -0.797087   -0.330886
     12          6           0        3.410338   -1.391775   -1.729464
     13          1           0        3.507555   -1.587175    0.426458
     14          1           0        4.509816   -0.285964   -0.209547
     15          1           0        4.198618   -2.130590   -1.902421
     16          1           0        2.443719   -1.890885   -1.853643
     17          1           0        3.497860   -0.626011   -2.506624
     18          6           0        2.378337    1.799028   -1.055274
     19          6           0        3.742572    2.480191   -1.111165
     20          1           0        1.597175    2.508142   -0.758084
     21          1           0        2.087221    1.422243   -2.041986
     22          1           0        3.712459    3.302941   -1.832340
     23          1           0        4.029479    2.900790   -0.143072
     24          1           0        4.530849    1.792162   -1.431170
     25          6           0       -3.141202   -0.336554   -0.083529
     26          6           0       -5.164592    0.688730   -0.189125
     27          6           0       -4.299014    1.902176    0.185825
     28          1           0       -5.496892    0.764265   -1.234919
     29          1           0       -6.064046    0.650280    0.434067
     30          1           0       -4.545251    2.789425   -0.399937
     31          1           0       -4.370547    2.142377    1.250128
     32          7           0       -4.400010   -0.538935   -0.042236
     33         16           0       -2.606146    1.361328   -0.178651
 ---------------------------------------------------------------------
 Rotational constants (GHZ):      0.6739357      0.1904716      0.1763474
 General basis read from cards:  (5D, 7F)
 ======================================================================================================
                                       Pseudopotential Parameters
 ======================================================================================================
  Center     Atomic      Valence      Angular      Power
  Number     Number     Electrons     Momentum     of R      Exponent        Coefficient   SO-Coeffient
 ======================================================================================================
    1         79           19
                                      G and up 
                                                     1      622.6287956      -60.00000000    0.00000000
                                                     2      136.2843607     -555.52923120    0.00000000
                                                     2       33.1549781     -168.00197850    0.00000000
                                                     2        9.9894895      -63.03998750    0.00000000
                                                     2        3.0481312       -4.25166810    0.00000000
                                      S - G
                                                     0      194.7374304        3.00000000    0.00000000
                                                     1      351.5327447       38.60208800    0.00000000
                                                     2      122.3270402      864.83707270    0.00000000
                                                     2       32.0914617      374.99355200    0.00000000
                                                     2        5.2451812      289.79101000    0.00000000
                                                     2        4.4916223     -152.45327730    0.00000000
                                      P - G
                                                     0      420.6158801        2.00000000    0.00000000
                                                     1      109.4417815       73.88856250    0.00000000
                                                     2       34.1714280      326.67298720    0.00000000
                                                     2        5.9879750      126.58145910    0.00000000
                                      D - G
                                                     0      219.2666158        3.00000000    0.00000000
                                                     1      122.7297786       55.67931490    0.00000000
                                                     2       63.1063369      449.19873350    0.00000000
                                                     2       18.3684520      215.02690910    0.00000000
                                                     2        4.4972844       64.08409950    0.00000000
                                      F - G
                                                     0      108.5506037        4.00000000    0.00000000
                                                     1       56.4795527       51.80653350    0.00000000
                                                     2       29.2069159      231.21831130    0.00000000
                                                     2        9.5440543      119.00473860    0.00000000
                                                     2        2.8965118       15.34241880    0.00000000
    2         16
                                   No pseudopotential on this center.
    3         15
                                   No pseudopotential on this center.
    4          6
                                   No pseudopotential on this center.
    5          6
                                   No pseudopotential on this center.
    6          1
                                   No pseudopotential on this center.
    7          1
                                   No pseudopotential on this center.
    8          1
                                   No pseudopotential on this center.
    9          1
                                   No pseudopotential on this center.
   10          1
                                   No pseudopotential on this center.
   11          6
                                   No pseudopotential on this center.
   12          6
                                   No pseudopotential on this center.
   13          1
                                   No pseudopotential on this center.
   14          1
                                   No pseudopotential on this center.
   15          1
                                   No pseudopotential on this center.
   16          1
                                   No pseudopotential on this center.
   17          1
                                   No pseudopotential on this center.
   18          6
                                   No pseudopotential on this center.
   19          6
                                   No pseudopotential on this center.
   20          1
                                   No pseudopotential on this center.
   21          1
                                   No pseudopotential on this center.
   22          1
                                   No pseudopotential on this center.
   23          1
                                   No pseudopotential on this center.
   24          1
                                   No pseudopotential on this center.
   25          6
                                   No pseudopotential on this center.
   26          6
                                   No pseudopotential on this center.
   27          6
                                   No pseudopotential on this center.
   28          1
                                   No pseudopotential on this center.
   29          1
                                   No pseudopotential on this center.
   30          1
                                   No pseudopotential on this center.
   31          1
                                   No pseudopotential on this center.
   32          7
                                   No pseudopotential on this center.
   33         16
                                   No pseudopotential on this center.
 ======================================================================================================
 There are   293 symmetry adapted cartesian basis functions of A   symmetry.
 There are   274 symmetry adapted basis functions of A   symmetry.
   274 basis functions,   560 primitive gaussians,   293 cartesian basis functions
    73 alpha electrons       73 beta electrons
       nuclear repulsion energy      1451.1955115600 Hartrees.
 NAtoms=   33 NActive=   33 NUniq=   33 SFac= 1.00D+00 NAtFMM=   60 NAOKFM=F Big=F
 Integral buffers will be    131072 words long.
 Raffenetti 2 integral format.
 Two-electron integral symmetry is turned on.
 One-electron integrals computed using PRISM.
   1 Symmetry operations used in ECPInt.
 ECPInt:  NShTT=    5778 NPrTT=   31962 LenC2=    5065 LenP2D=   17179.
 LDataN:  DoStor=T MaxTD1= 7 Len=  274
 NBasis=   274 RedAO= T EigKep=  2.39D-03  NBF=   274
 NBsUse=   274 1.00D-06 EigRej= -1.00D+00 NBFU=   274
 Defaulting to unpruned grid for atomic number  79.
 ExpMin= 2.79D-02 ExpMax= 2.19D+04 ExpMxC= 3.30D+03 IAcc=3 IRadAn=         5 AccDes= 0.00D+00
 Harris functional with IExCor=  402 and IRadAn=       5 diagonalized for initial guess.
 HarFok:  IExCor=  402 AccDes= 0.00D+00 IRadAn=         5 IDoV= 1 UseB2=F ITyADJ=14
 ICtDFT=  3500011 ScaDFX=  1.000000  1.000000  1.000000  1.000000
 Defaulting to unpruned grid for atomic number  79.
 Defaulting to unpruned grid for atomic number  79.
 Defaulting to unpruned grid for atomic number  79.
 Defaulting to unpruned grid for atomic number  79.
 Defaulting to unpruned grid for atomic number  79.
 Defaulting to unpruned grid for atomic number  79.
 Defaulting to unpruned grid for atomic number  79.
 Defaulting to unpruned grid for atomic number  79.
 FoFCou: FMM=F IPFlag=           0 FMFlag=      100000 FMFlg1=           0
         NFxFlg=           0 DoJE=T BraDBF=F KetDBF=T FulRan=T
         wScrn=  0.000000 ICntrl=     500 IOpCl=  0 I1Cent=   200000004 NGrid=           0
         NMat0=    1 NMatS0=      1 NMatT0=    0 NMatD0=    1 NMtDS0=    0 NMtDT0=    0
 Petite list used in FoFCou.
 Keep R1 ints in memory in canonical form, NReq=722708241.
 Requested convergence on RMS density matrix=1.00D-08 within 128 cycles.
 Requested convergence on MAX density matrix=1.00D-06.
 Requested convergence on             energy=1.00D-06.
 No special actions if energy rises.
 Defaulting to unpruned grid for atomic number  79.
 Defaulting to unpruned grid for atomic number  79.
 Defaulting to unpruned grid for atomic number  79.
 Defaulting to unpruned grid for atomic number  79.
 Defaulting to unpruned grid for atomic number  79.
 Defaulting to unpruned grid for atomic number  79.
 Defaulting to unpruned grid for atomic number  79.
 Defaulting to unpruned grid for atomic number  79.
 EnCoef did     2 forward-backward iterations
 SCF Done:  E(RB3LYP) =  -1682.42601487     A.U. after   14 cycles
            NFock= 14  Conv=0.96D-08     -V/T= 2.0613

 **********************************************************************

            Population analysis using the SCF density.

 **********************************************************************

 Orbital symmetries:
       Occupied  (A) (A) (A) (A) (A) (A) (A) (A) (A) (A) (A) (A)
                 (A) (A) (A) (A) (A) (A) (A) (A) (A) (A) (A) (A)
                 (A) (A) (A) (A) (A) (A) (A) (A) (A) (A) (A) (A)
                 (A) (A) (A) (A) (A) (A) (A) (A) (A) (A) (A) (A)
                 (A) (A) (A) (A) (A) (A) (A) (A) (A) (A) (A) (A)
                 (A) (A) (A) (A) (A) (A) (A) (A) (A) (A) (A) (A)
                 (A)
       Virtual   (A) (A) (A) (A) (A) (A) (A) (A) (A) (A) (A) (A)
                 (A) (A) (A) (A) (A) (A) (A) (A) (A) (A) (A) (A)
                 (A) (A) (A) (A) (A) (A) (A) (A) (A) (A) (A) (A)
                 (A) (A) (A) (A) (A) (A) (A) (A) (A) (A) (A) (A)
                 (A) (A) (A) (A) (A) (A) (A) (A) (A) (A) (A) (A)
                 (A) (A) (A) (A) (A) (A) (A) (A) (A) (A) (A) (A)
                 (A) (A) (A) (A) (A) (A) (A) (A) (A) (A) (A) (A)
                 (A) (A) (A) (A) (A) (A) (A) (A) (A) (A) (A) (A)
                 (A) (A) (A) (A) (A) (A) (A) (A) (A) (A) (A) (A)
                 (A) (A) (A) (A) (A) (A) (A) (A) (A) (A) (A) (A)
                 (A) (A) (A) (A) (A) (A) (A) (A) (A) (A) (A) (A)
                 (A) (A) (A) (A) (A) (A) (A) (A) (A) (A) (A) (A)
                 (A) (A) (A) (A) (A) (A) (A) (A) (A) (A) (A) (A)
                 (A) (A) (A) (A) (A) (A) (A) (A) (A) (A) (A) (A)
                 (A) (A) (A) (A) (A) (A) (A) (A) (A) (A) (A) (A)
                 (A) (A) (A) (A) (A) (A) (A) (A) (A) (A) (A) (A)
                 (A) (A) (A) (A) (A) (A) (A) (A) (A)
 The electronic state is 1-A.
 Alpha  occ. eigenvalues --  -88.84257 -88.81704 -77.11990 -14.28891 -10.23649
 Alpha  occ. eigenvalues --  -10.21466 -10.21453 -10.21431 -10.20321 -10.19661
 Alpha  occ. eigenvalues --  -10.19486 -10.19473 -10.19405  -7.91967  -7.89416
 Alpha  occ. eigenvalues --   -6.60108  -5.88366  -5.88013  -5.87396  -5.85804
 Alpha  occ. eigenvalues --   -5.85307  -5.85006  -4.76247  -4.76235  -4.76013
 Alpha  occ. eigenvalues --   -4.16423  -2.31066  -2.29007  -2.28850  -0.91811
 Alpha  occ. eigenvalues --   -0.83244  -0.78764  -0.78605  -0.76352  -0.74256
 Alpha  occ. eigenvalues --   -0.69640  -0.66319  -0.65487  -0.64483  -0.59074
 Alpha  occ. eigenvalues --   -0.56650  -0.49987  -0.49055  -0.48296  -0.47984
 Alpha  occ. eigenvalues --   -0.46488  -0.46463  -0.44751  -0.44378  -0.43298
 Alpha  occ. eigenvalues --   -0.41270  -0.40545  -0.40288  -0.39862  -0.39193
 Alpha  occ. eigenvalues --   -0.39001  -0.38241  -0.37458  -0.37431  -0.35346
 Alpha  occ. eigenvalues --   -0.35211  -0.34131  -0.33411  -0.32257  -0.31234
 Alpha  occ. eigenvalues --   -0.30605  -0.29895  -0.29586  -0.26934  -0.23850
 Alpha  occ. eigenvalues --   -0.23210  -0.21022  -0.19219
 Alpha virt. eigenvalues --   -0.01963  -0.01165   0.01425   0.03379   0.03807
 Alpha virt. eigenvalues --    0.04341   0.05291   0.05949   0.07757   0.08714
 Alpha virt. eigenvalues --    0.09049   0.10255   0.10291   0.10726   0.11555
 Alpha virt. eigenvalues --    0.12197   0.13575   0.13656   0.14140   0.14314
 Alpha virt. eigenvalues --    0.15041   0.15438   0.15948   0.16270   0.16568
 Alpha virt. eigenvalues --    0.17298   0.18254   0.18725   0.19574   0.20078
 Alpha virt. eigenvalues --    0.20320   0.20912   0.22095   0.22684   0.23175
 Alpha virt. eigenvalues --    0.23436   0.24759   0.27605   0.31406   0.32928
 Alpha virt. eigenvalues --    0.35811   0.36926   0.37819   0.39476   0.39778
 Alpha virt. eigenvalues --    0.41103   0.41729   0.42684   0.44133   0.45490
 Alpha virt. eigenvalues --    0.46013   0.46743   0.47070   0.49073   0.52034
 Alpha virt. eigenvalues --    0.52979   0.54102   0.54675   0.55685   0.56309
 Alpha virt. eigenvalues --    0.57039   0.58147   0.58454   0.58997   0.60109
 Alpha virt. eigenvalues --    0.60804   0.61253   0.62190   0.63246   0.64446
 Alpha virt. eigenvalues --    0.67754   0.67888   0.69330   0.70017   0.71492
 Alpha virt. eigenvalues --    0.73693   0.74273   0.75786   0.77092   0.79735
 Alpha virt. eigenvalues --    0.80791   0.81117   0.81933   0.82291   0.83196
 Alpha virt. eigenvalues --    0.84237   0.84934   0.85343   0.85823   0.86396
 Alpha virt. eigenvalues --    0.86900   0.87048   0.87690   0.88276   0.88603
 Alpha virt. eigenvalues --    0.89406   0.89790   0.90240   0.91554   0.92211
 Alpha virt. eigenvalues --    0.92739   0.93225   0.95218   0.95855   0.96766
 Alpha virt. eigenvalues --    0.98022   0.98354   0.98870   0.99203   1.00083
 Alpha virt. eigenvalues --    1.00921   1.01401   1.02109   1.02876   1.03272
 Alpha virt. eigenvalues --    1.03809   1.04825   1.07327   1.09607   1.11804
 Alpha virt. eigenvalues --    1.17417   1.20677   1.23870   1.26194   1.30496
 Alpha virt. eigenvalues --    1.35887   1.46055   1.47450   1.48643   1.49902
 Alpha virt. eigenvalues --    1.50496   1.52825   1.54003   1.56319   1.56750
 Alpha virt. eigenvalues --    1.61909   1.65317   1.66682   1.68445   1.74253
 Alpha virt. eigenvalues --    1.79435   1.82522   1.85520   1.85867   1.88785
 Alpha virt. eigenvalues --    1.89634   1.90984   1.91811   1.94229   1.94663
 Alpha virt. eigenvalues --    1.95698   1.96387   1.96459   1.96981   1.98268
 Alpha virt. eigenvalues --    1.98745   1.99517   1.99844   2.00827   2.01069
 Alpha virt. eigenvalues --    2.01351   2.01839   2.03082   2.03818   2.07822
 Alpha virt. eigenvalues --    2.09768   2.10044   2.12196   2.16530   2.17235
 Alpha virt. eigenvalues --    2.20484   2.23616   2.24110   2.25532   2.25935
 Alpha virt. eigenvalues --    2.26371   2.27206   2.28242   2.29996   2.30806
 Alpha virt. eigenvalues --    2.30896   2.31428   2.32215   2.32731   2.32900
 Alpha virt. eigenvalues --    2.33033   2.33753   2.43081   2.47823   2.55748
 Alpha virt. eigenvalues --    2.58123   2.59120   2.62641   2.64387   2.65281
 Alpha virt. eigenvalues --    2.86038   2.94996  15.59936  15.61813  15.70880
 Alpha virt. eigenvalues --   43.15213
          Condensed to atoms (all electrons):
               1          2          3          4          5          6
     1  Au  18.577396   0.295726   0.333590  -0.031958  -0.000185  -0.002901
     2  S    0.295726  15.595103  -0.000754   0.000012  -0.000076  -0.000020
     3  P    0.333590  -0.000754  13.599911   0.316419  -0.038846  -0.029728
     4  C   -0.031958   0.000012   0.316419   5.233392   0.365781   0.370605
     5  C   -0.000185  -0.000076  -0.038846   0.365781   5.064364  -0.027946
     6  H   -0.002901  -0.000020  -0.029728   0.370605  -0.027946   0.531087
     7  H    0.004584  -0.000001  -0.030986   0.358790  -0.032576  -0.029521
     8  H   -0.000678   0.000000   0.004905  -0.028839   0.373686  -0.005216
     9  H    0.012040  -0.000097  -0.010692  -0.032231   0.384264  -0.003305
    10  H    0.000231  -0.000005  -0.005911  -0.038374   0.381469   0.004540
    11  C   -0.027569   0.000031   0.319338  -0.031493  -0.002023   0.002146
    12  C    0.000327  -0.000048  -0.039254   0.001822   0.000074  -0.000029
    13  H   -0.003168  -0.000014  -0.033437  -0.001488   0.001247   0.000035
    14  H    0.004153  -0.000002  -0.030801  -0.002732  -0.000176   0.000000
    15  H   -0.000424   0.000000   0.005100  -0.000061   0.000000   0.000001
    16  H    0.011758  -0.000072  -0.009442   0.000024  -0.000005   0.000000
    17  H   -0.000598  -0.000003  -0.006542   0.000006  -0.000001   0.000000
    18  C   -0.030403  -0.000013   0.313072  -0.032039   0.001763  -0.001275
    19  C    0.002688   0.000000  -0.026585  -0.004158   0.000089  -0.000232
    20  H   -0.001811  -0.000028  -0.031694  -0.002916   0.000011   0.001878
    21  H   -0.000884  -0.000036  -0.031400   0.002036  -0.000025   0.000037
    22  H   -0.000142   0.000000   0.004505   0.000033   0.000000  -0.000017
    23  H    0.000438   0.000000  -0.007603   0.002309  -0.000015   0.000416
    24  H   -0.000089   0.000000  -0.007631  -0.000304  -0.000007   0.000032
    25  C   -0.024491   0.298398   0.000015   0.000000   0.000000   0.000000
    26  C   -0.002245   0.006195   0.000000   0.000000   0.000000   0.000000
    27  C   -0.000792   0.003148   0.000009   0.000000   0.000000   0.000000
    28  H    0.001785   0.000088   0.000000   0.000000   0.000000   0.000000
    29  H   -0.000879  -0.000114   0.000000   0.000000   0.000000   0.000000
    30  H   -0.000158  -0.000098   0.000000   0.000000   0.000000   0.000000
    31  H    0.001644   0.000044  -0.000001   0.000000   0.000000   0.000000
    32  N    0.006757  -0.057911  -0.000003   0.000000   0.000000   0.000000
    33  S    0.025556  -0.094297  -0.000150  -0.000019   0.000000  -0.000002
               7          8          9         10         11         12
     1  Au   0.004584  -0.000678   0.012040   0.000231  -0.027569   0.000327
     2  S   -0.000001   0.000000  -0.000097  -0.000005   0.000031  -0.000048
     3  P   -0.030986   0.004905  -0.010692  -0.005911   0.319338  -0.039254
     4  C    0.358790  -0.028839  -0.032231  -0.038374  -0.031493   0.001822
     5  C   -0.032576   0.373686   0.384264   0.381469  -0.002023   0.000074
     6  H   -0.029521  -0.005216  -0.003305   0.004540   0.002146  -0.000029
     7  H    0.563147  -0.003784   0.003948  -0.003470  -0.005162  -0.000002
     8  H   -0.003784   0.553763  -0.026392  -0.030229  -0.000018   0.000000
     9  H    0.003948  -0.026392   0.488875  -0.028519  -0.000100  -0.000006
    10  H   -0.003470  -0.030229  -0.028519   0.557297   0.001661  -0.000018
    11  C   -0.005162  -0.000018  -0.000100   0.001661   5.223519   0.363793
    12  C   -0.000002   0.000000  -0.000006  -0.000018   0.363793   5.066862
    13  H   -0.000333  -0.000058  -0.000014   0.002942   0.373203  -0.027403
    14  H    0.003601  -0.000006   0.000005   0.000214   0.356515  -0.032319
    15  H   -0.000003   0.000000   0.000000   0.000002  -0.028317   0.374211
    16  H    0.000000   0.000000  -0.000001   0.000001  -0.033149   0.384083
    17  H    0.000001   0.000000   0.000000   0.000000  -0.038171   0.381605
    18  C   -0.002808  -0.000059   0.000023   0.000018  -0.027787  -0.001517
    19  C    0.001393   0.000000  -0.000002  -0.000005  -0.004089  -0.000838
    20  H   -0.000179  -0.000003  -0.000004   0.000002   0.002190   0.000048
    21  H   -0.000029   0.000001  -0.000001   0.000001  -0.002471   0.001509
    22  H   -0.000055   0.000000   0.000000   0.000000   0.000051  -0.000004
    23  H    0.003209   0.000004   0.000000   0.000003  -0.000267   0.000042
    24  H    0.000077   0.000000   0.000000   0.000000   0.001718   0.000433
    25  C    0.000000   0.000000  -0.000001   0.000000   0.000000   0.000000
    26  C    0.000000   0.000000   0.000000   0.000000   0.000000   0.000000
    27  C    0.000000   0.000000   0.000000   0.000000   0.000000   0.000000
    28  H    0.000000   0.000000   0.000000   0.000000   0.000000   0.000000
    29  H    0.000000   0.000000   0.000000   0.000000   0.000000   0.000000
    30  H    0.000000   0.000000   0.000000   0.000000   0.000000   0.000000
    31  H    0.000000   0.000000   0.000000   0.000000   0.000000   0.000000
    32  N    0.000000   0.000000   0.000000   0.000000   0.000000   0.000000
    33  S    0.000000   0.000000  -0.000016   0.000000   0.000001   0.000000
              13         14         15         16         17         18
     1  Au  -0.003168   0.004153  -0.000424   0.011758  -0.000598  -0.030403
     2  S   -0.000014  -0.000002   0.000000  -0.000072  -0.000003  -0.000013
     3  P   -0.033437  -0.030801   0.005100  -0.009442  -0.006542   0.313072
     4  C   -0.001488  -0.002732  -0.000061   0.000024   0.000006  -0.032039
     5  C    0.001247  -0.000176   0.000000  -0.000005  -0.000001   0.001763
     6  H    0.000035   0.000000   0.000001   0.000000   0.000000  -0.001275
     7  H   -0.000333   0.003601  -0.000003   0.000000   0.000001  -0.002808
     8  H   -0.000058  -0.000006   0.000000   0.000000   0.000000  -0.000059
     9  H   -0.000014   0.000005   0.000000  -0.000001   0.000000   0.000023
    10  H    0.002942   0.000214   0.000002   0.000001   0.000000   0.000018
    11  C    0.373203   0.356515  -0.028317  -0.033149  -0.038171  -0.027787
    12  C   -0.027403  -0.032319   0.374211   0.384083   0.381605  -0.001517
    13  H    0.525697  -0.030249  -0.004968  -0.003385   0.004475   0.002282
    14  H   -0.030249   0.565920  -0.003991   0.004099  -0.003760  -0.005019
    15  H   -0.004968  -0.003991   0.551131  -0.026820  -0.030202   0.000006
    16  H   -0.003385   0.004099  -0.026820   0.492596  -0.028738  -0.000257
    17  H    0.004475  -0.003760  -0.030202  -0.028738   0.558954   0.001936
    18  C    0.002282  -0.005019   0.000006  -0.000257   0.001936   5.239804
    19  C    0.000020   0.002139  -0.000003   0.000023   0.000331   0.349180
    20  H   -0.000025  -0.000020   0.000001  -0.000008   0.000008   0.374717
    21  H    0.000012  -0.000161  -0.000043  -0.000100   0.001788   0.374249
    22  H    0.000001  -0.000083   0.000000   0.000000  -0.000024  -0.029463
    23  H   -0.000012   0.000026   0.000000  -0.000001  -0.000007  -0.035963
    24  H    0.000013   0.002783  -0.000012  -0.000010   0.001321  -0.036412
    25  C    0.000000   0.000000   0.000000   0.000000   0.000000   0.000000
    26  C    0.000000   0.000000   0.000000   0.000000   0.000000   0.000000
    27  C    0.000000   0.000000   0.000000   0.000000   0.000000   0.000000
    28  H    0.000000   0.000000   0.000000   0.000000   0.000000   0.000000
    29  H    0.000000   0.000000   0.000000   0.000000   0.000000   0.000000
    30  H    0.000000   0.000000   0.000000   0.000000   0.000000   0.000000
    31  H    0.000000   0.000000   0.000000   0.000000   0.000000   0.000000
    32  N    0.000000   0.000000   0.000000   0.000000   0.000000   0.000000
    33  S    0.000000   0.000000   0.000000   0.000000   0.000000  -0.000074
              19         20         21         22         23         24
     1  Au   0.002688  -0.001811  -0.000884  -0.000142   0.000438  -0.000089
     2  S    0.000000  -0.000028  -0.000036   0.000000   0.000000   0.000000
     3  P   -0.026585  -0.031694  -0.031400   0.004505  -0.007603  -0.007631
     4  C   -0.004158  -0.002916   0.002036   0.000033   0.002309  -0.000304
     5  C    0.000089   0.000011  -0.000025   0.000000  -0.000015  -0.000007
     6  H   -0.000232   0.001878   0.000037  -0.000017   0.000416   0.000032
     7  H    0.001393  -0.000179  -0.000029  -0.000055   0.003209   0.000077
     8  H    0.000000  -0.000003   0.000001   0.000000   0.000004   0.000000
     9  H   -0.000002  -0.000004  -0.000001   0.000000   0.000000   0.000000
    10  H   -0.000005   0.000002   0.000001   0.000000   0.000003   0.000000
    11  C   -0.004089   0.002190  -0.002471   0.000051  -0.000267   0.001718
    12  C   -0.000838   0.000048   0.001509  -0.000004   0.000042   0.000433
    13  H    0.000020  -0.000025   0.000012   0.000001  -0.000012   0.000013
    14  H    0.002139  -0.000020  -0.000161  -0.000083   0.000026   0.002783
    15  H   -0.000003   0.000001  -0.000043   0.000000   0.000000  -0.000012
    16  H    0.000023  -0.000008  -0.000100   0.000000  -0.000001  -0.000010
    17  H    0.000331   0.000008   0.001788  -0.000024  -0.000007   0.001321
    18  C    0.349180   0.374717   0.374249  -0.029463  -0.035963  -0.036412
    19  C    5.061597  -0.032558  -0.033661   0.378133   0.382137   0.382120
    20  H   -0.032558   0.517701  -0.024159  -0.003963  -0.003017   0.004342
    21  H   -0.033661  -0.024159   0.517109  -0.004080   0.004311  -0.003226
    22  H    0.378133  -0.003963  -0.004080   0.545655  -0.029487  -0.029669
    23  H    0.382137  -0.003017   0.004311  -0.029487   0.554975  -0.030754
    24  H    0.382120   0.004342  -0.003226  -0.029669  -0.030754   0.556262
    25  C    0.000000  -0.000001   0.000000   0.000000   0.000000   0.000000
    26  C    0.000000   0.000000   0.000000   0.000000   0.000000   0.000000
    27  C    0.000000   0.000000   0.000000   0.000000   0.000000   0.000000
    28  H    0.000000   0.000000   0.000000   0.000000   0.000000   0.000000
    29  H    0.000000   0.000000   0.000000   0.000000   0.000000   0.000000
    30  H    0.000000   0.000000   0.000000   0.000000   0.000000   0.000000
    31  H    0.000000   0.000000   0.000000   0.000000   0.000000   0.000000
    32  N    0.000000   0.000000   0.000000   0.000000   0.000000   0.000000
    33  S    0.000001   0.000113  -0.000019   0.000000   0.000000   0.000000
              25         26         27         28         29         30
     1  Au  -0.024491  -0.002245  -0.000792   0.001785  -0.000879  -0.000158
     2  S    0.298398   0.006195   0.003148   0.000088  -0.000114  -0.000098
     3  P    0.000015   0.000000   0.000009   0.000000   0.000000   0.000000
     4  C    0.000000   0.000000   0.000000   0.000000   0.000000   0.000000
     5  C    0.000000   0.000000   0.000000   0.000000   0.000000   0.000000
     6  H    0.000000   0.000000   0.000000   0.000000   0.000000   0.000000
     7  H    0.000000   0.000000   0.000000   0.000000   0.000000   0.000000
     8  H    0.000000   0.000000   0.000000   0.000000   0.000000   0.000000
     9  H   -0.000001   0.000000   0.000000   0.000000   0.000000   0.000000
    10  H    0.000000   0.000000   0.000000   0.000000   0.000000   0.000000
    11  C    0.000000   0.000000   0.000000   0.000000   0.000000   0.000000
    12  C    0.000000   0.000000   0.000000   0.000000   0.000000   0.000000
    13  H    0.000000   0.000000   0.000000   0.000000   0.000000   0.000000
    14  H    0.000000   0.000000   0.000000   0.000000   0.000000   0.000000
    15  H    0.000000   0.000000   0.000000   0.000000   0.000000   0.000000
    16  H    0.000000   0.000000   0.000000   0.000000   0.000000   0.000000
    17  H    0.000000   0.000000   0.000000   0.000000   0.000000   0.000000
    18  C    0.000000   0.000000   0.000000   0.000000   0.000000   0.000000
    19  C    0.000000   0.000000   0.000000   0.000000   0.000000   0.000000
    20  H   -0.000001   0.000000   0.000000   0.000000   0.000000   0.000000
    21  H    0.000000   0.000000   0.000000   0.000000   0.000000   0.000000
    22  H    0.000000   0.000000   0.000000   0.000000   0.000000   0.000000
    23  H    0.000000   0.000000   0.000000   0.000000   0.000000   0.000000
    24  H    0.000000   0.000000   0.000000   0.000000   0.000000   0.000000
    25  C    5.110769  -0.078165  -0.033342  -0.005857   0.005173   0.003068
    26  C   -0.078165   4.944976   0.304174   0.358891   0.376605  -0.017945
    27  C   -0.033342   0.304174   5.340463  -0.039674  -0.038129   0.352190
    28  H   -0.005857   0.358891  -0.039674   0.610027  -0.045334  -0.005520
    29  H    0.005173   0.376605  -0.038129  -0.045334   0.594687   0.001179
    30  H    0.003068  -0.017945   0.352190  -0.005520   0.001179   0.564223
    31  H    0.000531  -0.030092   0.361299   0.005566  -0.008219  -0.037845
    32  N    0.539400   0.358797  -0.060119  -0.041314  -0.040870   0.003912
    33  S    0.229749  -0.073068   0.265428   0.008475   0.004653  -0.033510
              31         32         33
     1  Au   0.001644   0.006757   0.025556
     2  S    0.000044  -0.057911  -0.094297
     3  P   -0.000001  -0.000003  -0.000150
     4  C    0.000000   0.000000  -0.000019
     5  C    0.000000   0.000000   0.000000
     6  H    0.000000   0.000000  -0.000002
     7  H    0.000000   0.000000   0.000000
     8  H    0.000000   0.000000   0.000000
     9  H    0.000000   0.000000  -0.000016
    10  H    0.000000   0.000000   0.000000
    11  C    0.000000   0.000000   0.000001
    12  C    0.000000   0.000000   0.000000
    13  H    0.000000   0.000000   0.000000
    14  H    0.000000   0.000000   0.000000
    15  H    0.000000   0.000000   0.000000
    16  H    0.000000   0.000000   0.000000
    17  H    0.000000   0.000000   0.000000
    18  C    0.000000   0.000000  -0.000074
    19  C    0.000000   0.000000   0.000001
    20  H    0.000000   0.000000   0.000113
    21  H    0.000000   0.000000  -0.000019
    22  H    0.000000   0.000000   0.000000
    23  H    0.000000   0.000000   0.000000
    24  H    0.000000   0.000000   0.000000
    25  C    0.000531   0.539400   0.229749
    26  C   -0.030092   0.358797  -0.073068
    27  C    0.361299  -0.060119   0.265428
    28  H    0.005566  -0.041314   0.008475
    29  H   -0.008219  -0.040870   0.004653
    30  H   -0.037845   0.003912  -0.033510
    31  H    0.581437   0.002743  -0.054941
    32  N    0.002743   6.711390  -0.089369
    33  S   -0.054941  -0.089369  15.662818
 Mulliken charges:
               1
     1  Au  -0.149297
     2  S   -0.045158
     3  P    0.444597
     4  C   -0.444621
     5  C   -0.470868
     6  H    0.189414
     7  H    0.170157
     8  H    0.162923
     9  H    0.212225
    10  H    0.158147
    11  C   -0.443549
    12  C   -0.473373
    13  H    0.194627
    14  H    0.169863
    15  H    0.164391
    16  H    0.209404
    17  H    0.157620
    18  C   -0.453957
    19  C   -0.457719
    20  H    0.199372
    21  H    0.199243
    22  H    0.168609
    23  H    0.159255
    24  H    0.159012
    25  C   -0.045245
    26  C   -0.148123
    27  C   -0.454655
    28  H    0.152868
    29  H    0.151248
    30  H    0.170504
    31  H    0.177832
    32  N   -0.333413
    33  S    0.148669
 Sum of Mulliken charges =   0.00000
 Mulliken charges with hydrogens summed into heavy atoms:
               1
     1  Au  -0.149297
     2  S   -0.045158
     3  P    0.444597
     4  C   -0.085050
     5  C    0.062426
    11  C   -0.079059
    12  C    0.058041
    18  C   -0.055342
    19  C    0.029157
    25  C   -0.045245
    26  C    0.155993
    27  C   -0.106319
    32  N   -0.333413
    33  S    0.148669
 Electronic spatial extent (au):  <R**2>=           6472.4574
 Charge=              0.0000 electrons
 Dipole moment (field-independent basis, Debye):
    X=              8.6013    Y=              4.8902    Z=              0.5151  Tot=              9.9076
 Quadrupole moment (field-independent basis, Debye-Ang):
   XX=           -113.1939   YY=           -126.2047   ZZ=           -123.6210
   XY=            -11.3850   XZ=             -0.8448   YZ=              0.3973
 Traceless Quadrupole moment (field-independent basis, Debye-Ang):
   XX=              7.8127   YY=             -5.1982   ZZ=             -2.6145
   XY=            -11.3850   XZ=             -0.8448   YZ=              0.3973
 Octapole moment (field-independent basis, Debye-Ang**2):
  XXX=             66.4734  YYY=            -43.8917  ZZZ=              7.9618  XYY=             28.6725
  XXY=             42.1948  XXZ=              0.1494  XZZ=             22.2732  YZZ=            -15.4439
  YYZ=             -1.6949  XYZ=             -0.7137
 Hexadecapole moment (field-independent basis, Debye-Ang**3):
 XXXX=          -6257.6566 YYYY=          -1337.3079 ZZZZ=           -921.9851 XXXY=           -286.4514
 XXXZ=            -11.3870 YYYX=            -51.2256 YYYZ=             -7.3633 ZZZX=              6.4061
 ZZZY=              4.0475 XXYY=          -1287.7392 XXZZ=          -1209.1867 YYZZ=           -379.2791
 XXYZ=              5.1114 YYXZ=             -9.9531 ZZXY=              0.0696
 N-N= 1.451195511560D+03 E-N=-6.837001335093D+03  KE= 1.585191996342D+03
   1 Symmetry operations used in ECPInt.
 ECPInt:  NShTT=    5778 NPrTT=   31962 LenC2=    5065 LenP2D=   17179.
 LDataN:  DoStor=T MaxTD1= 8 Len=  415
 Calling FoFJK, ICntrl=      2127 FMM=F ISym2X=0 I1Cent= 0 IOpClX= 0 NMat=1 NMatS=1 NMatT=0.
 Defaulting to unpruned grid for atomic number  79.
 Defaulting to unpruned grid for atomic number  79.
 Defaulting to unpruned grid for atomic number  79.
 Defaulting to unpruned grid for atomic number  79.
 Defaulting to unpruned grid for atomic number  79.
 Defaulting to unpruned grid for atomic number  79.
 Defaulting to unpruned grid for atomic number  79.
 Defaulting to unpruned grid for atomic number  79.
 ***** Axes restored to original set *****
 -------------------------------------------------------------------
 Center     Atomic                   Forces (Hartrees/Bohr)
 Number     Number              X              Y              Z
 -------------------------------------------------------------------
      1       79          -0.004356302   -0.000848434    0.000131909
      2       16           0.005829337   -0.010252487   -0.000193308
      3       15          -0.011799802   -0.006272873   -0.000635435
      4        6           0.003608599    0.005046649    0.001899328
      5        6          -0.000904180   -0.001429788    0.003323108
      6        1          -0.000221734    0.000507283    0.001052070
      7        1           0.001019598    0.001183488    0.001543499
      8        1           0.000173742   -0.000149542    0.000900914
      9        1           0.000092422   -0.000179137    0.000212082
     10        1           0.000276119   -0.000725975    0.000150152
     11        6           0.006095479   -0.000852463    0.002415380
     12        6           0.000256493   -0.002321215   -0.002846509
     13        1           0.000380545   -0.000808957   -0.000050441
     14        1           0.001928116   -0.000954829   -0.000348405
     15        1           0.000399078   -0.000566685   -0.000661654
     16        1          -0.000004329   -0.000084574   -0.000273947
     17        1          -0.000018420    0.000135489   -0.000708309
     18        6          -0.000965590    0.003062193   -0.002937601
     19        6           0.002075663    0.002704864   -0.001486767
     20        1          -0.000451614    0.000690925   -0.000927458
     21        1          -0.000401392    0.000784726   -0.000429946
     22        1           0.000982796    0.000851006   -0.000269994
     23        1           0.000572267    0.000468366    0.000466526
     24        1           0.000753319   -0.000140180   -0.000198951
     25        6          -0.008937947   -0.003196599    0.000568557
     26        6          -0.003729032   -0.003057087   -0.000334842
     27        6          -0.002535498    0.006299470    0.001820720
     28        1          -0.000386513    0.000155619   -0.000618127
     29        1          -0.000936467   -0.000456117    0.000213570
     30        1          -0.000826896    0.001307895    0.000156372
     31        1          -0.001371203    0.000653274    0.000864552
     32        7           0.000525866   -0.004332458    0.000283818
     33       16           0.012877478    0.012778156   -0.003080861
 -------------------------------------------------------------------
 Cartesian Forces:  Max     0.012877478 RMS     0.003229495

 GradGradGradGradGradGradGradGradGradGradGradGradGradGradGradGradGradGrad
 Berny optimization.
 FormGI is forming the generalized inverse of G from B-inverse, IUseBI=4.
 GSVD:  received Info=                   1 from GESDD.
 Internal  Forces:  Max     0.015577172 RMS     0.002460567
 Search for a local minimum.
 Step number   1 out of a maximum of  183
 All quantities printed in internal units (Hartrees-Bohrs-Radians)
 Mixed Optimization -- RFO/linear search
 Second derivative matrix not updated -- first step.
 ITU=  0
     Eigenvalues ---    0.00230   0.00230   0.00230   0.00417   0.00423
     Eigenvalues ---    0.00424   0.00470   0.00754   0.00777   0.00778
     Eigenvalues ---    0.01115   0.01432   0.01879   0.03371   0.03643
     Eigenvalues ---    0.03645   0.04391   0.04822   0.04843   0.04940
     Eigenvalues ---    0.04942   0.05374   0.05472   0.05474   0.05624
     Eigenvalues ---    0.05645   0.05653   0.05662   0.05682   0.05685
     Eigenvalues ---    0.06076   0.06483   0.08626   0.08637   0.09126
     Eigenvalues ---    0.10075   0.10704   0.11383   0.12297   0.12357
     Eigenvalues ---    0.12365   0.12692   0.15448   0.15807   0.16000
     Eigenvalues ---    0.16000   0.16000   0.16000   0.16000   0.16000
     Eigenvalues ---    0.16000   0.16000   0.16000   0.18308   0.21024
     Eigenvalues ---    0.21942   0.21957   0.21965   0.22030   0.23819
     Eigenvalues ---    0.23939   0.23945   0.23997   0.24981   0.24998
     Eigenvalues ---    0.25000   0.26995   0.28280   0.29763   0.29801
     Eigenvalues ---    0.29809   0.31107   0.33691   0.34093   0.34120
     Eigenvalues ---    0.34131   0.34136   0.34175   0.34221   0.34248
     Eigenvalues ---    0.34249   0.34257   0.34292   0.34298   0.34324
     Eigenvalues ---    0.34326   0.34337   0.34338   0.34376   0.34421
     Eigenvalues ---    0.34662   0.36791   0.70777
 RFO step:  Lambda=-4.26409377D-03 EMin= 2.30000000D-03
 Linear search not attempted -- first point.
 Iteration  1 RMS(Cart)=  0.07057377 RMS(Int)=  0.00072587
 Iteration  2 RMS(Cart)=  0.00169540 RMS(Int)=  0.00004454
 Iteration  3 RMS(Cart)=  0.00000285 RMS(Int)=  0.00004453
 Iteration  4 RMS(Cart)=  0.00000000 RMS(Int)=  0.00004453
 Variable       Old X    -DE/DX   Delta X   Delta X   Delta X     New X
                                 (Linear)    (Quad)   (Total)
    R1        4.43429  -0.00039   0.00000  -0.00209  -0.00209   4.43220
    R2        4.33894   0.00390   0.00000   0.01819   0.01819   4.35713
    R3        3.29508   0.01107   0.00000   0.03511   0.03511   3.33019
    R4        3.45684   0.01068   0.00000   0.04384   0.04384   3.50068
    R5        3.45668   0.01066   0.00000   0.04376   0.04376   3.50044
    R6        3.46010   0.01038   0.00000   0.04279   0.04279   3.50290
    R7        2.88439   0.00508   0.00000   0.01683   0.01683   2.90123
    R8        2.07109   0.00069   0.00000   0.00200   0.00200   2.07309
    R9        2.07102   0.00129   0.00000   0.00374   0.00374   2.07476
   R10        2.06783   0.00076   0.00000   0.00220   0.00220   2.07003
   R11        2.06898  -0.00002   0.00000  -0.00005  -0.00005   2.06893
   R12        2.06786   0.00072   0.00000   0.00208   0.00208   2.06995
   R13        2.88362   0.00517   0.00000   0.01711   0.01711   2.90073
   R14        2.06958   0.00053   0.00000   0.00154   0.00154   2.07112
   R15        2.07173   0.00121   0.00000   0.00350   0.00350   2.07523
   R16        2.06763   0.00077   0.00000   0.00222   0.00222   2.06985
   R17        2.06913   0.00007   0.00000   0.00021   0.00021   2.06934
   R18        2.06839   0.00060   0.00000   0.00173   0.00173   2.07012
   R19        2.88345   0.00571   0.00000   0.01888   0.01888   2.90233
   R20        2.07128   0.00052   0.00000   0.00150   0.00150   2.07278
   R21        2.07036   0.00022   0.00000   0.00065   0.00065   2.07101
   R22        2.06829   0.00079   0.00000   0.00228   0.00228   2.07057
   R23        2.06700   0.00074   0.00000   0.00214   0.00214   2.06914
   R24        2.06765   0.00069   0.00000   0.00198   0.00198   2.06962
   R25        2.41061   0.00084   0.00000   0.00129   0.00128   2.41189
   R26        3.36888   0.01558   0.00000   0.05626   0.05628   3.42516
   R27        2.90444   0.00719   0.00000   0.02416   0.02414   2.92859
   R28        2.07854   0.00071   0.00000   0.00209   0.00209   2.08063
   R29        2.06911   0.00091   0.00000   0.00262   0.00262   2.07173
   R30        2.74715   0.00285   0.00000   0.00733   0.00730   2.75445
   R31        2.06228   0.00116   0.00000   0.00331   0.00331   2.06559
   R32        2.06625   0.00108   0.00000   0.00309   0.00309   2.06935
   R33        3.42826   0.00919   0.00000   0.03576   0.03578   3.46404
    A1        1.84393  -0.00098   0.00000  -0.00385  -0.00385   1.84008
    A2        1.98575   0.00046   0.00000   0.00558   0.00560   1.99135
    A3        1.96629   0.00087   0.00000   0.01178   0.01180   1.97809
    A4        1.95445   0.00005   0.00000   0.00253   0.00255   1.95700
    A5        1.83881  -0.00068   0.00000  -0.00712  -0.00719   1.83162
    A6        1.84483  -0.00055   0.00000  -0.00995  -0.01008   1.83475
    A7        1.86354  -0.00030   0.00000  -0.00510  -0.00511   1.85844
    A8        1.98533   0.00085   0.00000   0.00595   0.00595   1.99127
    A9        1.85091   0.00017   0.00000   0.00319   0.00322   1.85413
   A10        1.88641   0.00088   0.00000   0.01348   0.01348   1.89990
   A11        1.92952  -0.00077   0.00000  -0.00958  -0.00961   1.91991
   A12        1.93429  -0.00098   0.00000  -0.00646  -0.00656   1.92772
   A13        1.87212  -0.00013   0.00000  -0.00652  -0.00662   1.86550
   A14        1.91994   0.00063   0.00000   0.00423   0.00423   1.92417
   A15        1.93891   0.00023   0.00000   0.00132   0.00132   1.94023
   A16        1.95136   0.00024   0.00000   0.00117   0.00117   1.95253
   A17        1.88762  -0.00038   0.00000  -0.00171  -0.00172   1.88590
   A18        1.87735  -0.00045   0.00000  -0.00260  -0.00260   1.87474
   A19        1.88638  -0.00034   0.00000  -0.00273  -0.00273   1.88365
   A20        1.98255   0.00123   0.00000   0.00755   0.00755   1.99010
   A21        1.85251  -0.00016   0.00000   0.00080   0.00084   1.85334
   A22        1.88714   0.00090   0.00000   0.01414   0.01415   1.90129
   A23        1.92769  -0.00071   0.00000  -0.00896  -0.00899   1.91870
   A24        1.94128  -0.00125   0.00000  -0.00796  -0.00808   1.93320
   A25        1.86698   0.00000   0.00000  -0.00560  -0.00569   1.86129
   A26        1.92117   0.00067   0.00000   0.00440   0.00440   1.92556
   A27        1.94012   0.00017   0.00000   0.00091   0.00091   1.94103
   A28        1.95080   0.00038   0.00000   0.00213   0.00213   1.95293
   A29        1.88630  -0.00041   0.00000  -0.00217  -0.00217   1.88413
   A30        1.87818  -0.00052   0.00000  -0.00293  -0.00293   1.87525
   A31        1.88491  -0.00036   0.00000  -0.00273  -0.00273   1.88218
   A32        2.03343   0.00231   0.00000   0.01320   0.01318   2.04661
   A33        1.84101  -0.00022   0.00000   0.00357   0.00358   1.84459
   A34        1.85174  -0.00036   0.00000   0.00248   0.00248   1.85423
   A35        1.93727  -0.00094   0.00000  -0.00581  -0.00589   1.93138
   A36        1.93704  -0.00083   0.00000  -0.00497  -0.00504   1.93200
   A37        1.85180  -0.00009   0.00000  -0.00987  -0.00991   1.84188
   A38        1.91252   0.00137   0.00000   0.00895   0.00894   1.92146
   A39        1.95385   0.00030   0.00000   0.00150   0.00150   1.95535
   A40        1.95426   0.00020   0.00000   0.00095   0.00094   1.95520
   A41        1.87689  -0.00082   0.00000  -0.00452  -0.00453   1.87236
   A42        1.87529  -0.00075   0.00000  -0.00390  -0.00391   1.87138
   A43        1.88776  -0.00041   0.00000  -0.00356  -0.00356   1.88420
   A44        2.15295  -0.00444   0.00000  -0.01785  -0.01787   2.13508
   A45        2.09343   0.00427   0.00000   0.01642   0.01641   2.10984
   A46        2.03644   0.00017   0.00000   0.00167   0.00166   2.03810
   A47        1.92610  -0.00042   0.00000  -0.00285  -0.00285   1.92325
   A48        1.92998   0.00020   0.00000   0.00353   0.00354   1.93352
   A49        1.92398   0.00136   0.00000   0.00653   0.00650   1.93048
   A50        1.87066  -0.00011   0.00000  -0.00352  -0.00352   1.86714
   A51        1.88911  -0.00030   0.00000  -0.00153  -0.00154   1.88757
   A52        1.92291  -0.00080   0.00000  -0.00260  -0.00260   1.92032
   A53        1.96477   0.00036   0.00000   0.00054   0.00049   1.96526
   A54        1.95417  -0.00091   0.00000  -0.00730  -0.00730   1.94687
   A55        1.81433  -0.00003   0.00000   0.00077   0.00078   1.81512
   A56        1.90614  -0.00042   0.00000  -0.00797  -0.00802   1.89813
   A57        1.92313   0.00024   0.00000   0.00647   0.00648   1.92961
   A58        1.89874   0.00083   0.00000   0.00872   0.00870   1.90744
[...]
 ,-0.00000433,-0.00001184,-0.00001228,0.00000432,-0.00000083,0.00000235
 ,-0.00000342,-0.00000299,0.00000341,-0.00000267,0.00360690,0.00255506,
 -0.00278070,-0.09749232,-0.00788820,-0.09514905,-0.00677394,-0.0025495
 4,-0.01751665,0.10710455,-0.00022992,-0.00022363,-0.00023635,0.0019732
 1,-0.00126758,-0.00129082,-0.00038536,-0.00015740,0.00003480,0.0001211
 5,0.00002680,-0.00002569,-0.00001341,0.00001952,0.00000229,-0.00000663
 ,-0.00000291,-0.00000528,0.00002123,0.00002069,0.00004762,0.00001352,0
 .00000518,0.00001524,0.00000543,-0.00000369,-0.00002927,-0.00000025,-0
 .00000286,-0.00000472,0.00004144,0.00004902,0.00000451,-0.00000729,-0.
 00001929,0.00000802,-0.00000801,0.00000208,-0.00000285,0.00002838,-0.0
 0001425,-0.00000526,0.00001488,-0.00000442,-0.00000321,-0.00000143,0.0
 0001947,0.00000746,-0.00000335,0.00000528,-0.00000145,0.00009021,0.000
 00941,0.00002865,-0.00002676,0.00002865,-0.00002804,0.00000135,-0.0000
 0294,0.00000149,-0.00000407,-0.00000872,0.00001376,0.00001872,0.000015
 45,-0.00000730,0.00000542,-0.00000259,0.00000748,0.00000101,-0.0000040
 9,0.00000346,-0.00422984,-0.00219553,0.00379769,-0.00570423,-0.0451996
 9,-0.00663729,-0.01096166,-0.00463475,-0.02470377,0.00003157,0.0584523
 3,0.00007959,0.00003797,-0.00005980,-0.00074215,0.00034142,-0.00001823
 ,0.00019440,0.00007245,0.00003195,-0.00004584,-0.00001289,0.00001501,0
 .00001276,-0.00000358,0.00000048,0.00000873,0.00000958,0.00000384,-0.0
 0001301,-0.00000860,-0.00001933,-0.00000327,-0.00000341,-0.00000751,-0
 .00000283,-0.00000634,0.00001111,-0.00000560,0.00000304,0.00000270,-0.
 00003542,-0.00004355,-0.00000398,-0.00000185,0.00000956,-0.00001063,0.
 00000423,-0.00000238,0.00000338,-0.00002377,0.00001420,0.00000769,-0.0
 0001058,0.00000546,0.00000530,0.00000338,-0.00001324,-0.00000917,0.000
 00143,-0.00000581,0.00000059,-0.00006093,-0.00001451,-0.00002401,0.000
 01821,-0.00001492,0.00002121,0.00000332,0.00001160,-0.00000372,0.00000
 096,0.00000461,-0.00000635,-0.00001245,-0.00001290,0.00000411,-0.00000
 138,0.00000145,-0.00000381,-0.00000548,0.00000404,-0.00000219,0.004659
 56,0.00140069,-0.00031751,-0.09618751,-0.00914402,-0.25311329,0.000739
 95,-0.00087439,-0.00081297,0.10979897,0.00546038,0.26985854,0.00002501
 ,0.00020143,-0.00011201,-0.00124855,0.00039115,-0.00052056,0.00029948,
 0.00007220,0.00008295,-0.00006696,-0.00000955,0.00002117,0.00000768,-0
 .00001853,-0.00000596,0.00000452,0.00000447,0.00000714,-0.00001315,-0.
 00001175,-0.00003289,-0.00001281,-0.00000491,-0.00001690,-0.00000725,0
 .00000442,0.00002532,0.00000329,0.00000412,0.00000377,-0.00004349,-0.0
 0005196,-0.00001679,0.00000405,0.00000903,-0.00000981,0.00000948,0.000
 00149,0.00000426,-0.00003059,0.00001600,0.00000989,-0.00001211,0.00000
 583,0.00000460,0.00000419,-0.00001461,-0.00001088,0.00000198,-0.000005
 42,0.00000043,-0.00010042,-0.00002622,-0.00004459,0.00002417,-0.000018
 54,0.00003523,0.00000929,0.00002053,0.00000211,0.00000806,0.00000522,-
 0.00001173,-0.00001687,-0.00001529,0.00000491,-0.00000459,-0.00000004,
 -0.00000787,-0.00000773,0.00000348,-0.00000246,-0.00052300,0.00189395,
 0.00130664,-0.17445943,-0.00138452,0.12861621,-0.01235114,-0.00235696,
 0.01179098,0.01180987,-0.00060980,-0.01002041,0.19423321,-0.00006667,-
 0.00053459,0.00031276,0.00161386,0.00019022,0.00039650,-0.00006723,0.0
 0009289,-0.00012678,0.00003888,0.00000316,-0.00001533,-0.00001012,0.00
 000198,0.00000404,-0.00000116,0.00000133,0.00000249,0.00000426,0.00000
 770,0.00001633,0.00000426,0.00000134,0.00000410,0.00000354,-0.00000217
 ,-0.00000716,0.00000014,-0.00000045,-0.00000219,0.00001675,0.00002167,
 0.00000547,-0.00000501,-0.00000527,0.00000467,-0.00000036,-0.00000343,
 0.00000115,0.00001186,-0.00001112,0.00000245,0.00000384,-0.00000139,-0
 .00000161,0.00000042,0.00000446,-0.00000009,-0.00000098,0.00000202,-0.
 00000058,0.00011597,0.00001661,0.00002704,-0.00002196,0.00003911,-0.00
 003160,0.00000869,0.00001152,0.00000940,0.00000573,-0.00001042,0.00000
 270,0.00001862,0.00001157,-0.00000295,0.00000020,-0.00000250,0.0000025
 8,-0.00000411,-0.00000351,0.00000141,0.00117398,-0.00491226,0.00001455
 ,-0.00521769,-0.04630263,0.00358140,-0.01921268,-0.00047699,0.01639919
 ,0.00018622,0.00114374,-0.00122848,-0.00303536,0.05669746,-0.00008338,
 -0.00004179,0.00001880,0.00013217,-0.00013130,-0.00025526,-0.00007478,
 -0.00003955,-0.00000688,0.00002963,0.00000856,-0.00000708,-0.00000509,
 0.00000323,-0.00000153,-0.00000330,-0.00000319,-0.00000139,0.00000684,
 0.00000555,0.00001221,0.00000200,0.00000177,0.00000434,0.00000105,0.00
 000138,-0.00000675,0.00000137,-0.00000257,-0.00000252,0.00002044,0.000
 02069,0.00000234,-0.00000178,-0.00000464,0.00000459,-0.00000342,-0.000
 00086,0.00000071,0.00001194,-0.00000737,-0.00000175,0.00000480,-0.0000
 0242,-0.00000144,-0.00000073,0.00000579,0.,-0.00000259,0.00000073,-0.0
 0000083,0.00002475,0.00000108,0.00000940,-0.00000902,0.00000857,-0.000
 00836,0.00000056,-0.00000013,0.00000053,-0.00000122,-0.00000201,0.0000
 0282,0.00000469,0.00000480,-0.00000248,0.00000108,-0.00000079,0.000002
 77,0.00000110,-0.00000203,0.00000087,-0.00231533,-0.00000449,0.0008005
 9,0.13212561,-0.00008825,-0.18592506,-0.00411715,-0.00112660,0.0025656
 2,0.02082123,0.00027853,-0.02183818,-0.14162642,0.00145971,0.19521154,
 -0.00001348,-0.00007085,0.00000062,0.00047612,0.00152327,0.00011845,0.
 00026900,0.00016744,0.00000517,-0.00005562,-0.00002101,0.00002100,0.00
 001217,-0.00000422,-0.00000260,0.00000714,0.00000500,0.00000043,-0.000
 01359,-0.00000888,-0.00002512,-0.00000752,-0.00000369,-0.00000861,-0.0
 0000596,0.00000041,0.00001578,0.00000166,0.,0.00000343,-0.00003562,-0.
 00004765,0.00000150,0.00000689,0.00001441,-0.00000532,0.00001418,-0.00
 000497,0.00000387,-0.00002516,0.00001242,0.00000541,-0.00000995,0.0000
 0112,0.00000243,0.00000222,-0.00001377,-0.00001470,-0.00000285,-0.0000
 0649,0.00000403,-0.00006861,-0.00001345,-0.00002093,0.00001941,-0.0000
 1919,0.00002690,0.00000280,0.00001042,-0.00001205,-0.00000492,0.000008
 71,-0.00000396,-0.00001968,-0.00001402,0.00000797,-0.00000326,0.000004
 13,-0.00000529,0.00000173,0.00000019,-0.00000329,-0.00707028,-0.000653
 61,0.00086769,0.00906372,-0.01465440,0.01017670,-0.07154489,0.06906034
 ,-0.05692766,0.00128451,0.00028347,0.00022620,-0.00088080,0.00004776,0
 .00028288,0.07759032,-0.00005567,-0.00013781,-0.00000062,0.00045120,-0
 .00024710,-0.00002778,-0.00017933,-0.00006793,-0.00002157,0.00006035,0
 .00001558,-0.00001906,-0.00000907,0.00000867,0.00000076,-0.00000496,-0
 .00000359,-0.00000376,0.00001178,0.00001079,0.00002652,0.00000675,0.00
 000281,0.00000953,0.00000435,-0.00000228,-0.00001447,-0.00000086,-0.00
 000249,-0.00000246,0.00003749,0.00004474,0.00000672,-0.00000353,-0.000
 00989,0.00000845,-0.00000721,0.00000036,-0.00000297,0.00002411,-0.0000
 1451,-0.00000591,0.00000877,-0.00000369,-0.00000387,-0.00000225,0.0000
 1088,0.00000829,-0.00000021,0.00000524,-0.00000174,0.00007004,0.000016
 49,0.00002800,-0.00001860,0.00001698,-0.00002583,-0.00000355,-0.000009
 52,0.00000412,-0.00000001,-0.00000625,0.00000535,0.00001482,0.00001312
 ,-0.00000454,0.00000192,-0.00000188,0.00000445,0.00000299,-0.00000272,
 0.00000253,-0.00254440,-0.00258278,0.00038876,0.01022664,-0.01546316,0
 .01221187,0.06796604,-0.20087852,0.11939441,0.00053009,0.00120113,-0.0
 0068967,-0.00083855,-0.00076756,-0.00003930,-0.07220137,0.21557758,-0.
 00002966,-0.00000866,-0.00005502,-0.00024936,-0.00066794,0.00006051,-0
 .00005557,-0.00001805,0.00000350,0.00002232,0.00000693,-0.00000692,0.0
 0000359,0.00000749,0.00000069,0.00000035,0.00000196,-0.00000387,0.0000
 0188,0.00000327,0.00001220,0.00000418,0.00000073,0.00000402,0.00000136
 ,-0.00000527,-0.00000673,-0.00000339,-0.00000076,0.00000068,0.00000842
 ,0.00001181,0.00000219,-0.00000240,-0.00000475,0.00000060,-0.00000210,
 -0.00000048,-0.00000159,0.00000609,-0.00000350,-0.00000174,0.00000332,
 -0.00000024,-0.00000080,-0.00000033,0.00000381,0.00000406,0.00000143,0
 .00000265,-0.00000034,0.00001530,0.00000744,0.00001056,-0.00000322,0.0
 0000348,-0.00000864,0.00000071,-0.00000025,0.00000429,0.00000307,-0.00
 000448,-0.00000046,0.00000338,0.00000371,0.00000066,-0.00000099,0.0000
 0015,-0.00000021,0.00000087,-0.00000119,0.00000055,0.00257826,-0.00213
 627,0.00016141,0.00086994,-0.00425880,0.00120664,-0.05342745,0.1202767
 7,-0.14242122,0.00030799,-0.00038390,0.00109553,-0.00007420,0.00015608
 ,0.00012843,0.05655885,-0.12682609,0.15023094,0.00009524,0.00005787,0.
 00003771,-0.00001053,0.00058267,-0.00063477,0.00013876,0.00004195,0.00
 005361,-0.00005522,0.00001010,0.00001217,0.00000131,-0.00002182,-0.000
 00901,-0.00000744,-0.00001049,0.00000243,-0.00000185,-0.00001193,-0.00
 002440,-0.00001241,0.00000091,-0.00001342,-0.00000958,0.00001648,0.000
 01815,0.00000892,-0.00000176,0.00000118,-0.00002256,-0.00002034,-0.000
 02023,0.00000847,0.00000109,0.00000115,0.00000271,0.00000391,0.0000019
 6,-0.00001364,0.00000618,0.00000335,-0.00000425,0.00000217,-0.00000197
 ,-0.00000045,-0.00000739,-0.00000040,0.00000500,0.00000033,-0.00000156
 ,-0.00004376,-0.00000557,-0.00001895,0.00001121,-0.00000305,0.00000868
 ,0.00001111,0.00001584,0.00002259,0.00002333,-0.00000396,-0.00001790,-
 0.00000585,-0.00000412,0.00000424,-0.00000992,-0.00000228,-0.00000721,
 -0.00000372,-0.00000111,-0.00000165,-0.00321499,-0.00304450,0.00180221
 ,-0.00369970,-0.00510641,-0.01895507,-0.04208626,-0.00623979,-0.020721
 69,-0.00147485,-0.00428607,-0.00026561,0.00094844,0.00025630,-0.000277
 88,0.00065051,-0.00415258,-0.01031219,0.05551859,-0.00001283,0.0000088
 5,-0.00001421,0.00002712,-0.00013232,0.00017490,-0.00003435,-0.0000157
 0,-0.00003294,0.00001160,-0.00000072,-0.00000348,0.00000910,0.00001397
 ,0.00000271,0.00000237,0.00000327,-0.00000466,-0.00000041,0.00000188,0
 .00001028,0.00000612,0.00000058,0.00000694,0.00000331,-0.00000849,-0.0
 0001077,-0.00000538,-0.00000169,0.00000113,0.00001422,0.00001253,0.000
 00974,-0.00000172,0.00000016,0.00000097,0.00000065,-0.00000269,-0.0000
 0105,0.00000735,-0.00000422,-0.00000298,0.00000210,-0.00000121,-0.0000
 0009,-0.00000040,0.00000269,-0.00000019,-0.00000147,0.00000037,0.00000
 138,0.00000571,0.00000787,0.00001119,-0.00000174,-0.00000343,-0.000002
 54,-0.00000478,-0.00000754,-0.00000509,-0.00000530,-0.00000101,0.00000
 515,0.,0.00000147,0.00000027,0.00000166,0.00000222,0.00000164,0.000003
 69,-0.00000037,-0.00000006,0.00033854,-0.00029309,-0.00031689,-0.00352
 740,-0.00485990,-0.02506842,-0.00867597,-0.07778784,-0.07484177,-0.002
 52687,-0.00365546,-0.00036331,0.00046582,0.00145689,0.00029565,0.00154
 224,0.00910922,0.02404080,0.00872576,0.07733054,-0.00006130,-0.0000134
 7,0.00000765,-0.00000096,-0.00012458,0.00000581,-0.00016670,-0.0000861
 1,-0.00004637,0.00004957,0.00000343,-0.00001162,-0.00000699,0.00001286
 ,0.00000308,-0.00000368,-0.00000192,-0.00000448,0.00000902,0.00000868,
 0.00002123,0.00000970,0.00000112,0.00001297,0.00000036,-0.00000183,-0.
 00001626,-0.00000203,0.00000117,-0.00000189,0.00003473,0.00003541,0.00
 001362,-0.00000544,-0.00000527,0.00000372,-0.00000354,0.00000234,-0.00
 000290,0.00002019,-0.00000908,-0.00000617,0.00000736,-0.00000245,-0.00
 000117,0.,0.00001187,0.00000353,-0.00000180,0.00000201,0.00000016,0.00
 004960,0.00000970,0.00002101,-0.00001433,0.00000835,-0.00001659,-0.000
 00791,-0.00001464,-0.00000935,-0.00001012,0.00000130,0.00001226,0.0000
 0943,0.00000749,-0.00000559,0.00000683,-0.00000017,0.00000749,0.000003
 24,-0.00000016,0.00000221,-0.00002081,0.00019893,0.00021349,-0.0007521
 6,0.00113968,-0.00025117,-0.02736575,-0.07371180,-0.29358627,-0.000093
 56,-0.00031544,0.00165455,-0.00045250,0.00004214,0.00146234,-0.0021252
 3,-0.00577527,-0.01664633,0.02501808,0.08179942,0.30962768,0.00083861,
 0.00289335,0.00089831,-0.04363104,0.01695710,0.00521784,0.00237284,0.0
 0012011,0.00002777,-0.00094098,-0.00020935,0.00026885,0.00007426,-0.00
 016990,0.00000871,0.00005990,0.00006556,0.00007363,-0.00016276,-0.0001
 4321,-0.00040834,-0.00007598,-0.00002070,-0.00013633,-0.00003786,0.000
 01619,0.00018556,-0.00000384,0.00004473,0.00002709,-0.00039108,-0.0004
 8718,-0.00008780,0.00003348,0.00012133,-0.00009125,0.00005219,0.000021
 24,0.00002777,-0.00027049,0.00016011,0.00007055,-0.00011815,0.00005212
 ,0.00004900,0.00002852,-0.00014264,-0.00007826,0.00002025,-0.00005030,
 0.00000328,-0.00090492,-0.00018729,-0.00034200,0.00022480,-0.00019165,
 0.00032031,0.00002687,0.00014398,-0.00001036,0.00004427,0.00004455,-0.
 00008125,-0.00015986,-0.00014138,0.00004517,-0.00002849,0.00001287,-0.
 00006429,-0.00005910,0.00003752,-0.00002395,-0.54264185,-0.08164057,0.
 10398526,-0.10141906,0.07510906,-0.01262785,-0.00138277,0.00449134,0.0
 0210821,-0.01750384,0.02379722,-0.00671581,-0.01642048,0.02713540,-0.0
 0262270,-0.00023599,-0.00011208,0.00035423,0.00186844,0.00004780,0.000
 43948,0.74678958,-0.00012792,-0.00407545,-0.00067088,0.02981355,0.0039
 3111,-0.00519569,-0.00113395,0.00014975,0.00018784,0.00074443,0.000172
 15,-0.00022518,-0.00007916,0.00006004,0.00000609,-0.00000385,0.0000297
 8,0.00002080,0.00008304,0.00012239,0.00028926,0.00005004,0.00000700,0.
 00004976,0.00003110,-0.00004568,-0.00008446,-0.00001947,0.00001046,-0.
 00001786,0.00017351,0.00026298,-0.00000622,-0.00007504,-0.00008859,0.0
 0002533,-0.00004909,0.00000896,-0.00000791,0.00012875,-0.00008576,0.00
 000279,0.00003681,-0.00000482,-0.00001245,0.00001159,0.00005364,0.0000
 2575,0.00000770,0.00002858,-0.00001972,0.00083770,0.00003227,0.0001768
 2,-0.00018798,0.00029442,-0.00026082,0.00007305,0.00009191,0.00008560,
 0.00004836,-0.00006972,0.00000802,0.00016735,0.00009851,-0.00004157,0.
 00001109,-0.00003662,0.00002932,-0.00005364,-0.00001982,0.00002094,-0.
 02657517,-0.08046506,0.00869141,0.03518768,-0.14758471,0.00918850,0.00
 043684,-0.04153451,0.00989505,0.00875912,-0.00437881,0.00619066,0.0061
 7940,-0.00501013,-0.00036809,-0.00358758,-0.00395254,-0.00183772,0.000
 03917,-0.00032094,-0.00098261,-0.02390909,0.31953278,-0.00059094,-0.00
 007315,0.00019379,0.00787305,-0.00523179,0.00119597,-0.00085606,-0.000
 28890,-0.00015808,0.00011919,0.00002469,-0.00001312,0.00000839,0.00004
 978,0.00000648,-0.00001729,-0.00002790,-0.00002188,0.00003832,0.000010
 84,0.00005660,0.00002575,0.00000844,0.00003556,0.00000228,0.00001127,-
 0.00006893,0.00000929,-0.00000805,-0.00000041,0.00006627,0.00006858,0.
 00002618,-0.00000078,-0.00002996,0.00001306,0.00000654,-0.00000125,-0.
 00001138,0.00004459,-0.00001285,-0.00001551,0.00003005,-0.00001051,-0.
 00000786,-0.00000530,0.00004163,0.00001307,-0.00001029,0.00000799,0.00
 000874,0.00007100,0.00003667,0.00005775,-0.00003518,0.00000200,-0.0000
 2685,-0.00001320,-0.00004478,-0.00000271,-0.00001227,-0.00002129,0.000
 03465,0.00001541,0.00001797,-0.00000457,0.00000946,0.00000595,0.000013
 99,0.00002031,-0.00000648,0.00000190,0.08730051,0.01872198,-0.06829678
 ,-0.00198131,0.00320596,-0.07407262,0.00778117,0.00061915,0.00221511,-
 0.01693525,0.02389672,0.00383281,0.01051170,-0.02099698,0.00675958,-0.
 00057010,-0.00033209,0.00065211,-0.00058103,0.00111605,-0.00028030,-0.
 10568640,-0.03723033,0.11072492,-0.00112681,0.00114184,-0.00011540,0.0
 0144055,0.01422251,-0.00169682,-0.00023310,0.00016868,-0.00010919,-0.0
 0003715,-0.00006616,0.00002601,0.00002489,0.00001709,0.00001433,-0.000
 00919,0.00003038,-0.00001128,-0.00001863,-0.00000686,-0.00001766,-0.00
 000101,-0.00001092,-0.00000646,0.00000940,-0.00002164,0.00000949,-0.00
 000404,0.00000390,0.00000638,-0.00006920,-0.00007160,0.00002566,0.0000
 1956,0.00001826,0.00000154,0.00002922,-0.00001800,0.00000450,-0.000037
 06,0.00001385,0.00000892,-0.00001606,0.00000160,-0.00000120,0.00000223
 ,-0.00002083,-0.00002507,-0.00000442,-0.00001059,0.00000508,-0.0000593
 5,0.00002641,0.00000493,0.00002937,-0.00002862,0.00001507,0.00001766,-
 0.00000510,-0.00004602,-0.00000716,0.00001121,0.00000121,-0.00001628,-
 0.00001235,0.00000859,-0.00000075,0.00000726,-0.00000458,0.00000931,0.
 00000688,-0.00000386,-0.04507544,-0.00277856,0.00700947,-0.03293972,-0
 .00842509,0.01338905,-0.09835765,0.00838987,0.03278226,0.00044045,0.00
 002982,-0.00159779,-0.00119338,-0.00300334,-0.00232733,-0.00940418,0.0
 0071694,0.00341534,-0.00861507,0.00358348,0.00543721,-0.02604545,-0.02
 701832,0.01336211,0.22124845,0.00014683,0.00022411,0.00000944,0.003674
 54,-0.02040146,0.00164142,-0.00047963,-0.00127376,-0.00000303,0.000325
 87,0.00006592,-0.00012982,-0.00005449,0.00004019,0.00001981,-0.0000078
 0,0.00005605,0.00003392,0.00002715,0.00007686,0.00012895,0.00004417,0.
 00001487,0.00003249,0.00003442,-0.00005066,-0.00006389,-0.00003698,0.0
 0001949,-0.00002081,0.00034264,0.00037380,0.00002379,-0.00005055,-0.00
 002396,0.00003520,-0.00007655,0.00003360,-0.00001138,0.00015181,-0.000
 10348,-0.00004004,0.00001280,-0.00000102,-0.00000231,-0.00000911,0.000
 02116,0.00003962,0.00001380,0.00002289,-0.00002366,0.00034081,0.000001
 13,0.00008841,-0.00009457,0.00013929,-0.00011025,0.00001745,0.00005614
 ,0.00003602,0.00000729,-0.00004536,0.00002748,0.00009230,0.00005224,-0
 .00002717,0.00001847,-0.00002068,0.00001786,-0.00004285,-0.00000642,0.
 00001910,-0.02632947,-0.06796146,0.01163690,0.00077903,0.00059424,0.00
 529451,0.02119551,-0.04529669,-0.01289415,-0.00021441,0.00077986,-0.00
 112513,-0.00087652,-0.00165923,-0.00023066,0.01864382,-0.00187940,-0.0
 0836874,0.01316245,-0.00085586,-0.00224113,-0.04386622,-0.03721359,0.0
 1647065,0.01310800,0.17422119,-0.00014280,0.00063291,-0.00008378,-0.00
 026097,-0.00110498,0.00338653,-0.00031883,-0.00021148,0.00000544,0.000
 04695,-0.00000344,-0.00001205,0.00002178,0.00003366,0.00001454,-0.0000
 3079,0.00002985,-0.00003165,-0.00000064,0.00000901,0.00002942,0.000011
 96,0.00000099,0.00001575,0.00001960,-0.00004085,-0.00001582,-0.0000208
 6,0.00000155,-0.00000077,0.00001910,0.00002448,0.00001388,-0.00000831,
 -0.00000177,-0.00000077,-0.00001979,0.00000433,-0.00000998,0.00002082,
 0.00000037,-0.00001344,0.00000962,0.00000078,-0.00000164,-0.00000478,0
 .00001170,0.00002395,0.00000672,0.00000499,-0.00000382,0.00001984,0.00
 004887,0.00004154,0.00000057,-0.00001466,-0.00003289,-0.00001587,-0.00
 003621,0.00002721,0.00001503,-0.00001645,-0.00001000,0.00000561,0.0000
 0679,-0.00000092,-0.00000135,0.00000160,0.00000410,0.00000785,0.000002
 43,0.00000089,0.00828478,0.00536660,-0.03361248,0.00477791,0.00692187,
 -0.00447924,0.02530143,-0.00840471,-0.04799466,0.00014260,0.00007252,-
 0.00029811,0.00053866,-0.00003241,0.00107204,-0.00860442,0.00169725,0.
 00557427,0.02487748,-0.00680978,-0.00218634,0.01486560,0.01206761,0.01
 713870,-0.06956450,-0.01026341,0.06144011\\0.00000807,0.00001877,-0.00
 000845,-0.00001972,-0.00000343,0.00000927,0.00001237,-0.00000443,0.000
 01258,0.00001076,-0.00000718,-0.00001105,-0.00000147,0.00000200,0.0000
 0469,-0.00000367,0.00000753,-0.00000467,-0.00000154,0.00000672,0.00000
 116,0.00000139,0.00000984,-0.00000541,0.00000226,0.00000200,-0.0000000
 2,0.00000420,0.00000505,-0.00000283,-0.00000377,0.00001196,0.00000212,
 -0.00000123,-0.00000270,-0.00000542,0.00000227,0.00000574,0.00000700,0
 .00000341,0.00000253,-0.00000650,0.00000400,0.00000371,0.00000766,0.00
 000315,0.00000098,-0.00000036,-0.00000058,0.00000507,0.00000312,-0.000
 00546,0.00000238,0.00000377,0.00000088,0.00000985,-0.00001041,-0.00000
 415,-0.00000054,-0.00000179,-0.00000211,-0.00000378,-0.00000239,-0.000
 01114,-0.00000280,-0.00000101,-0.00000296,0.00000128,0.00000132,-0.000
 00313,-0.00000248,0.00000120,0.00000970,-0.00001809,-0.00001341,-0.000
 00500,-0.00003297,0.00000014,0.00003543,-0.00000252,-0.00000854,-0.000
 00124,-0.00000828,-0.00000130,0.00000437,-0.00000576,0.00000381,-0.000
 00788,-0.00001012,0.00000017,-0.00000143,-0.00000258,0.00000319,-0.000
 01740,-0.00000721,0.00001131,-0.00000837,0.00001943,0.00001107\\\@


 THE ATTENTION SPAN OF A COMPUTER IS AS LONG
 AS ITS EXTENSION CORD.
 Job cpu time:       0 days  0 hours 29 minutes 44.6 seconds.
 File lengths (MBytes):  RWF=    331 Int=      0 D2E=      0 Chk=      7 Scr=      1
 Normal termination of Gaussian 09 at Tue May  2 07:10:29 2023.
