 Entering Gaussian System, Link 0=g09
 Input=au-1to3-ts-2-af24-c-term-level3-freq-se-new-p.com
 Output=au-1to3-ts-2-af24-c-term-level3-freq-se-new-p.log
 Initial command:
 /home/scr/programs/g09/l1.exe "/home/scr/guest2/Gau-17497.inp" -scrdir="/home/scr/guest2/"
 Entering Link 1 = /home/scr/programs/g09/l1.exe PID=     17498.
  
 Copyright (c) 1988,1990,1992,1993,1995,1998,2003,2009,2013,
            Gaussian, Inc.  All Rights Reserved.
  
 This is part of the Gaussian(R) 09 program.  It is based on
 the Gaussian(R) 03 system (copyright 2003, Gaussian, Inc.),
 the Gaussian(R) 98 system (copyright 1998, Gaussian, Inc.),
 the Gaussian(R) 94 system (copyright 1995, Gaussian, Inc.),
 the Gaussian 92(TM) system (copyright 1992, Gaussian, Inc.),
 the Gaussian 90(TM) system (copyright 1990, Gaussian, Inc.),
 the Gaussian 88(TM) system (copyright 1988, Gaussian, Inc.),
 the Gaussian 86(TM) system (copyright 1986, Carnegie Mellon
 University), and the Gaussian 82(TM) system (copyright 1983,
 Carnegie Mellon University). Gaussian is a federally registered
 trademark of Gaussian, Inc.
  
 This software contains proprietary and confidential information,
 including trade secrets, belonging to Gaussian, Inc.
  
 This software is provided under written license and may be
 used, copied, transmitted, or stored only in accord with that
 written license.
  
 The following legend is applicable only to US Government
 contracts under FAR:
  
                    RESTRICTED RIGHTS LEGEND
  
 Use, reproduction and disclosure by the US Government is
 subject to restrictions as set forth in subparagraphs (a)
 and (c) of the Commercial Computer Software - Restricted
 Rights clause in FAR 52.227-19.
  
 Gaussian, Inc.
 340 Quinnipiac St., Bldg. 40, Wallingford CT 06492
  
  
 ---------------------------------------------------------------
 Warning -- This program may not be used in any manner that
 competes with the business of Gaussian, Inc. or will provide
 assistance to any competitor of Gaussian, Inc.  The licensee
 of this program is prohibited from giving any competitor of
 Gaussian, Inc. access to this program.  By using this program,
 the user acknowledges that Gaussian, Inc. is engaged in the
 business of creating and licensing software in the field of
 computational chemistry and represents and warrants to the
 licensee that it is not a competitor of Gaussian, Inc. and that
 it will not use this program in any manner prohibited above.
 ---------------------------------------------------------------
  

 Cite this work as:
 Gaussian 09, Revision D.01,
 M. J. Frisch, G. W. Trucks, H. B. Schlegel, G. E. Scuseria, 
 M. A. Robb, J. R. Cheeseman, G. Scalmani, V. Barone, B. Mennucci, 
 G. A. Petersson, H. Nakatsuji, M. Caricato, X. Li, H. P. Hratchian, 
 A. F. Izmaylov, J. Bloino, G. Zheng, J. L. Sonnenberg, M. Hada, 
 M. Ehara, K. Toyota, R. Fukuda, J. Hasegawa, M. Ishida, T. Nakajima, 
 Y. Honda, O. Kitao, H. Nakai, T. Vreven, J. A. Montgomery, Jr., 
 J. E. Peralta, F. Ogliaro, M. Bearpark, J. J. Heyd, E. Brothers, 
 K. N. Kudin, V. N. Staroverov, T. Keith, R. Kobayashi, J. Normand, 
 K. Raghavachari, A. Rendell, J. C. Burant, S. S. Iyengar, J. Tomasi, 
 M. Cossi, N. Rega, J. M. Millam, M. Klene, J. E. Knox, J. B. Cross, 
 V. Bakken, C. Adamo, J. Jaramillo, R. Gomperts, R. E. Stratmann, 
 O. Yazyev, A. J. Austin, R. Cammi, C. Pomelli, J. W. Ochterski, 
 R. L. Martin, K. Morokuma, V. G. Zakrzewski, G. A. Voth, 
 P. Salvador, J. J. Dannenberg, S. Dapprich, A. D. Daniels, 
 O. Farkas, J. B. Foresman, J. V. Ortiz, J. Cioslowski, 
 and D. J. Fox, Gaussian, Inc., Wallingford CT, 2013.
 
 ******************************************
 Gaussian 09:  EM64L-G09RevD.01 24-Apr-2013
                 5-May-2023 
 ******************************************
 %mem=30000MB
 %nprocshared=8
 Will use up to    8 processors via shared memory.
 ----------------------------------------
 # opt freq=noraman b3lyp/gen pseudo=read
 ----------------------------------------
 1/14=-1,18=20,19=15,26=3,38=1/1,3;
 2/9=110,12=2,17=6,18=5,40=1/2;
 3/5=7,11=2,16=1,17=8,25=1,30=1,71=1,74=-5/1,2,3;
 4//1;
 5/5=2,38=5/2;
 6/7=2,8=2,9=2,10=2,28=1/1;
 7//1,2,3,16;
 1/14=-1,18=20,19=15,26=3/3(2);
 2/9=110/2;
 99//99;
 2/9=110/2;
 3/5=7,6=1,11=2,16=1,17=8,25=1,30=1,71=1,74=-5,82=7/1,2,3;
 4/5=5,16=3,69=1/1;
 5/5=2,38=5/2;
 7//1,2,3,16;
 1/14=-1,18=20,19=15,26=3/3(-5);
 2/9=110/2;
 6/7=2,8=2,9=2,10=2,19=2,28=1/1;
 99/9=1/99;
 -------------------
 Title Card Required
 -------------------
 Symbolic Z-matrix:
 Charge =  0 Multiplicity = 1
 Au                   -1.89984  -1.20543  -0.60239 
 P                    -3.78988  -0.29756   0.6637 
 C                    -5.25879  -0.04999  -0.47004 
 H                    -6.00306  -0.80067  -0.17397 
 H                    -4.91544  -0.30568  -1.47516 
 C                    -3.46038   1.28102   1.56835 
 H                    -4.33703   1.48195   2.19647 
 H                    -3.41943   2.0695    0.81214 
 C                    -4.40035  -1.48647   1.95129 
 H                    -3.55865  -1.71741   2.61175 
 H                    -4.62814  -2.41722   1.41785 
 C                    -5.86451   1.35854  -0.49566 
 H                    -6.21438   1.68071   0.49091 
 H                    -5.13543   2.08554  -0.86863 
 H                    -6.72677   1.3615   -1.17236 
 C                    -5.61207  -1.01566   2.76627 
 H                    -5.94318  -1.8215    3.43021 
 H                    -5.37057  -0.15257   3.39479 
 H                    -6.46006  -0.7433    2.1288 
 C                    -2.17324   1.26526   2.40081 
 H                    -1.29357   1.18667   1.75496 
 H                    -2.08667   2.20313   2.95944 
 H                    -2.14218   0.44647   3.12712 
 S                    -2.20945   0.52202  -2.30793 
 N                     4.67653   2.61139   2.69561 
 C                     3.60555   1.61681   2.59185 
 C                     4.12275   0.3091    1.9637 
 O                     4.85331   0.36046   0.97418 
 C                     2.49371   2.22856   1.70685 
 O                     1.34865   1.39419   1.55807 
 N                     3.79845  -0.90248   2.5141 
 C                     2.92384  -1.17929   3.6464 
 C                     1.43698  -0.87996   3.39315 
 O                     0.87724   0.03339   4.00995 
 N                     0.77703  -1.61746   2.46877 
 C                     1.27357  -2.67512   1.61353 
 C                     2.07608  -2.24669   0.36722 
 O                     2.9255   -3.03028  -0.05856 
 C                     0.10641  -3.61052   1.14516 
 S                    -1.59301  -2.91737   1.08783 
 N                     1.74895  -1.07837  -0.24404 
 C                     2.13785  -0.85815  -1.63244 
 C                     0.96086  -0.97704  -2.63307 
 C                     2.76825   0.53533  -1.7663 
 O                     2.0743    1.5544   -1.65 
 N                     4.08893   0.61819  -2.03788 
 C                     5.08057  -0.43582  -1.92538 
 C                     6.44004   0.21062  -1.7421 
 O                     6.65145   1.40279  -1.7623 
 O                     7.39997  -0.71764  -1.57419 
 H                     2.229     3.20124   2.13958 
 H                     2.88085   2.39167   0.69787 
 H                     0.9612    1.25423   2.44211 
 H                     3.19185   1.4474    3.59097 
 H                     5.20496   2.58634   1.82284 
 H                     5.33186   2.33896   3.42661 
 H                     3.20768  -0.58682   4.51948 
 H                     3.05908  -2.23402   3.90763 
 H                     4.15115  -1.69099   1.98154 
 H                    -0.00124  -4.42374   1.86922 
 H                     0.37046  -4.04764   0.18213 
 H                     1.96757  -3.31208   2.17098 
 H                    -0.21604  -1.40664   2.36761 
 H                     1.35438  -1.21946  -3.62468 
 H                     0.40698  -0.04297  -2.71705 
 H                     2.86104  -1.64255  -1.84992 
 H                     1.21509  -0.36791   0.25211 
 H                     5.12157  -1.06609  -2.8239 
 H                     4.89531  -1.08161  -1.06349 
 H                     4.47534   1.55898  -2.02786 
 H                     8.23952  -0.23284  -1.46519 
 Se                   -0.35384  -2.3876   -2.20833 
 C                    -1.88088   2.06868  -1.52872 
 C                    -2.08313   4.07257  -0.77098 
 C                    -0.69288   3.79093  -0.78974 
 H                     0.2825    2.00461  -1.43256 
 C                    -2.53774   5.32258  -0.32096 
 C                     0.26688   4.72237  -0.37725 
 C                    -1.58893   6.24909   0.0932 
 H                    -3.60001   5.54826  -0.30806 
 C                    -0.20722   5.95339   0.06353 
 H                     1.32739   4.49369  -0.41114 
 H                    -1.91085   7.22563   0.44435 
 H                     0.502     6.70921   0.38989 
 N                    -2.79552   2.97945  -1.22871 
 N                    -0.59602   2.50853  -1.27738 
 

 GradGradGradGradGradGradGradGradGradGradGradGradGradGradGradGradGradGrad
 Berny optimization.
 Initialization pass.
                           ----------------------------
                           !    Initial Parameters    !
                           ! (Angstroms and Degrees)  !
 --------------------------                            --------------------------
 ! Name  Definition              Value          Derivative Info.                !
 --------------------------------------------------------------------------------
 ! R1    R(1,2)                  2.4494         estimate D2E/DX2                !
 ! R2    R(1,24)                 2.4472         estimate D2E/DX2                !
 ! R3    R(1,40)                 2.4252         estimate D2E/DX2                !
 ! R4    R(1,72)                 2.5232         estimate D2E/DX2                !
 ! R5    R(2,3)                  1.872          estimate D2E/DX2                !
 ! R6    R(2,6)                  1.849          estimate D2E/DX2                !
 ! R7    R(2,9)                  1.8558         estimate D2E/DX2                !
 ! R8    R(3,4)                  1.0978         estimate D2E/DX2                !
 ! R9    R(3,5)                  1.0925         estimate D2E/DX2                !
 ! R10   R(3,12)                 1.5335         estimate D2E/DX2                !
 ! R11   R(6,7)                  1.097          estimate D2E/DX2                !
 ! R12   R(6,8)                  1.0933         estimate D2E/DX2                !
 ! R13   R(6,20)                 1.533          estimate D2E/DX2                !
 ! R14   R(9,10)                 1.0945         estimate D2E/DX2                !
 ! R15   R(9,11)                 1.0967         estimate D2E/DX2                !
 ! R16   R(9,16)                 1.5343         estimate D2E/DX2                !
 ! R17   R(12,13)                1.0952         estimate D2E/DX2                !
 ! R18   R(12,14)                1.0951         estimate D2E/DX2                !
 ! R19   R(12,15)                1.0961         estimate D2E/DX2                !
 ! R20   R(16,17)                1.0954         estimate D2E/DX2                !
 ! R21   R(16,18)                1.0947         estimate D2E/DX2                !
 ! R22   R(16,19)                1.0953         estimate D2E/DX2                !
 ! R23   R(20,21)                1.0941         estimate D2E/DX2                !
 ! R24   R(20,22)                1.0951         estimate D2E/DX2                !
 ! R25   R(20,23)                1.0949         estimate D2E/DX2                !
 ! R26   R(24,73)                1.7627         estimate D2E/DX2                !
 ! R27   R(25,26)                1.4653         estimate D2E/DX2                !
 ! R28   R(25,55)                1.0206         estimate D2E/DX2                !
 ! R29   R(25,56)                1.0188         estimate D2E/DX2                !
 ! R30   R(26,27)                1.5402         estimate D2E/DX2                !
 ! R31   R(26,29)                1.5471         estimate D2E/DX2                !
 ! R32   R(26,54)                1.0946         estimate D2E/DX2                !
 ! R33   R(27,28)                1.2311         estimate D2E/DX2                !
 ! R34   R(27,31)                1.3697         estimate D2E/DX2                !
 ! R35   R(29,30)                1.4246         estimate D2E/DX2                !
 ! R36   R(29,51)                1.097          estimate D2E/DX2                !
 ! R37   R(29,52)                1.0929         estimate D2E/DX2                !
 ! R38   R(30,53)                0.9753         estimate D2E/DX2                !
 ! R39   R(31,32)                1.4573         estimate D2E/DX2                !
 ! R40   R(31,59)                1.0148         estimate D2E/DX2                !
 ! R41   R(32,33)                1.5377         estimate D2E/DX2                !
 ! R42   R(32,57)                1.0926         estimate D2E/DX2                !
 ! R43   R(32,58)                1.095          estimate D2E/DX2                !
 ! R44   R(33,34)                1.2361         estimate D2E/DX2                !
 ! R45   R(33,35)                1.3542         estimate D2E/DX2                !
 ! R46   R(35,36)                1.448          estimate D2E/DX2                !
 ! R47   R(35,63)                1.0202         estimate D2E/DX2                !
 ! R48   R(36,37)                1.543          estimate D2E/DX2                !
 ! R49   R(36,39)                1.5674         estimate D2E/DX2                !
 ! R50   R(36,62)                1.0946         estimate D2E/DX2                !
 ! R51   R(37,38)                1.2316         estimate D2E/DX2                !
 ! R52   R(37,41)                1.3585         estimate D2E/DX2                !
 ! R53   R(39,40)                1.8362         estimate D2E/DX2                !
 ! R54   R(39,60)                1.0942         estimate D2E/DX2                !
 ! R55   R(39,61)                1.0901         estimate D2E/DX2                !
 ! R56   R(41,42)                1.4586         estimate D2E/DX2                !
 ! R57   R(41,67)                1.0178         estimate D2E/DX2                !
 ! R58   R(42,43)                1.5494         estimate D2E/DX2                !
 ! R59   R(42,44)                1.5353         estimate D2E/DX2                !
 ! R60   R(42,66)                1.0888         estimate D2E/DX2                !
 ! R61   R(43,64)                1.094          estimate D2E/DX2                !
 ! R62   R(43,65)                1.0892         estimate D2E/DX2                !
 ! R63   R(43,72)                1.9745         estimate D2E/DX2                !
 ! R64   R(44,45)                1.2384         estimate D2E/DX2                !
 ! R65   R(44,46)                1.3509         estimate D2E/DX2                !
 ! R66   R(46,47)                1.4515         estimate D2E/DX2                !
 ! R67   R(46,70)                1.0171         estimate D2E/DX2                !
 ! R68   R(47,48)                1.5165         estimate D2E/DX2                !
 ! R69   R(47,68)                1.0983         estimate D2E/DX2                !
 ! R70   R(47,69)                1.0928         estimate D2E/DX2                !
 ! R71   R(48,49)                1.2109         estimate D2E/DX2                !
 ! R72   R(48,50)                1.3459         estimate D2E/DX2                !
 ! R73   R(50,71)                0.9756         estimate D2E/DX2                !
 ! R74   R(73,85)                1.3252         estimate D2E/DX2                !
 ! R75   R(73,86)                1.3811         estimate D2E/DX2                !
 ! R76   R(74,75)                1.4186         estimate D2E/DX2                !
 ! R77   R(74,77)                1.4042         estimate D2E/DX2                !
 ! R78   R(74,85)                1.3827         estimate D2E/DX2                !
 ! R79   R(75,78)                1.3996         estimate D2E/DX2                !
 ! R80   R(75,86)                1.3754         estimate D2E/DX2                !
 ! R81   R(76,86)                1.0246         estimate D2E/DX2                !
 ! R82   R(77,79)                1.3893         estimate D2E/DX2                !
 ! R83   R(77,80)                1.0861         estimate D2E/DX2                !
 ! R84   R(78,81)                1.3909         estimate D2E/DX2                !
 ! R85   R(78,82)                1.0854         estimate D2E/DX2                !
 ! R86   R(79,81)                1.4133         estimate D2E/DX2                !
 ! R87   R(79,83)                1.0865         estimate D2E/DX2                !
 ! R88   R(81,84)                1.0866         estimate D2E/DX2                !
 ! A1    A(2,1,24)              90.0563         estimate D2E/DX2                !
 ! A2    A(2,1,40)              89.9436         estimate D2E/DX2                !
 ! A3    A(24,1,72)             87.975          estimate D2E/DX2                !
 ! A4    A(40,1,72)             92.025          estimate D2E/DX2                !
 ! A5    A(1,2,3)              109.9655         estimate D2E/DX2                !
 ! A6    A(1,2,6)              115.584          estimate D2E/DX2                !
 ! A7    A(1,2,9)              112.0251         estimate D2E/DX2                !
 ! A8    A(3,2,6)              108.8587         estimate D2E/DX2                !
 ! A9    A(3,2,9)              104.288          estimate D2E/DX2                !
 ! A10   A(6,2,9)              105.4324         estimate D2E/DX2                !
 ! A11   A(2,3,4)              106.1538         estimate D2E/DX2                !
 ! A12   A(2,3,5)              106.2382         estimate D2E/DX2                !
 ! A13   A(2,3,12)             116.2025         estimate D2E/DX2                !
 ! A14   A(4,3,5)              107.5275         estimate D2E/DX2                !
 ! A15   A(4,3,12)             111.3959         estimate D2E/DX2                !
 ! A16   A(5,3,12)             108.8901         estimate D2E/DX2                !
 ! A17   A(2,6,7)              107.1037         estimate D2E/DX2                !
 ! A18   A(2,6,8)              106.4983         estimate D2E/DX2                !
 ! A19   A(2,6,20)             113.9873         estimate D2E/DX2                !
 ! A20   A(7,6,8)              107.0907         estimate D2E/DX2                !
 ! A21   A(7,6,20)             111.2192         estimate D2E/DX2                !
 ! A22   A(8,6,20)             110.5842         estimate D2E/DX2                !
 ! A23   A(2,9,10)             107.5093         estimate D2E/DX2                !
 ! A24   A(2,9,11)             105.9352         estimate D2E/DX2                !
 ! A25   A(2,9,16)             115.5778         estimate D2E/DX2                !
 ! A26   A(10,9,11)            105.9122         estimate D2E/DX2                !
 ! A27   A(10,9,16)            110.5823         estimate D2E/DX2                !
 ! A28   A(11,9,16)            110.7783         estimate D2E/DX2                !
 ! A29   A(3,12,13)            112.4162         estimate D2E/DX2                !
 ! A30   A(3,12,14)            110.64           estimate D2E/DX2                !
 ! A31   A(3,12,15)            108.8764         estimate D2E/DX2                !
 ! A32   A(13,12,14)           108.9165         estimate D2E/DX2                !
 ! A33   A(13,12,15)           107.7002         estimate D2E/DX2                !
 ! A34   A(14,12,15)           108.1606         estimate D2E/DX2                !
 ! A35   A(9,16,17)            109.5688         estimate D2E/DX2                !
 ! A36   A(9,16,18)            111.8815         estimate D2E/DX2                !
 ! A37   A(9,16,19)            112.247          estimate D2E/DX2                !
 ! A38   A(17,16,18)           107.3798         estimate D2E/DX2                !
 ! A39   A(17,16,19)           107.5588         estimate D2E/DX2                !
 ! A40   A(18,16,19)           107.9947         estimate D2E/DX2                !
 ! A41   A(6,20,21)            110.8094         estimate D2E/DX2                !
 ! A42   A(6,20,22)            109.5479         estimate D2E/DX2                !
 ! A43   A(6,20,23)            113.0615         estimate D2E/DX2                !
 ! A44   A(21,20,22)           107.4024         estimate D2E/DX2                !
 ! A45   A(21,20,23)           108.363          estimate D2E/DX2                !
 ! A46   A(22,20,23)           107.4468         estimate D2E/DX2                !
 ! A47   A(1,24,73)            106.7205         estimate D2E/DX2                !
 ! A48   A(26,25,55)           107.5314         estimate D2E/DX2                !
 ! A49   A(26,25,56)           109.8431         estimate D2E/DX2                !
 ! A50   A(55,25,56)           105.8999         estimate D2E/DX2                !
 ! A51   A(25,26,27)           111.0853         estimate D2E/DX2                !
 ! A52   A(25,26,29)           107.3003         estimate D2E/DX2                !
 ! A53   A(25,26,54)           108.4616         estimate D2E/DX2                !
 ! A54   A(27,26,29)           110.106          estimate D2E/DX2                !
 ! A55   A(27,26,54)           111.5791         estimate D2E/DX2                !
 ! A56   A(29,26,54)           108.1632         estimate D2E/DX2                !
 ! A57   A(26,27,28)           119.4507         estimate D2E/DX2                !
 ! A58   A(26,27,31)           120.5076         estimate D2E/DX2                !
 ! A59   A(28,27,31)           120.0277         estimate D2E/DX2                !
 ! A60   A(26,29,30)           113.94           estimate D2E/DX2                !
 ! A61   A(26,29,51)           107.3594         estimate D2E/DX2                !
 ! A62   A(26,29,52)           109.4224         estimate D2E/DX2                !
 ! A63   A(30,29,51)           111.5035         estimate D2E/DX2                !
 ! A64   A(30,29,52)           106.0042         estimate D2E/DX2                !
 ! A65   A(51,29,52)           108.5            estimate D2E/DX2                !
 ! A66   A(29,30,53)           107.9809         estimate D2E/DX2                !
 ! A67   A(27,31,32)           128.4882         estimate D2E/DX2                !
 ! A68   A(27,31,59)           113.2128         estimate D2E/DX2                !
 ! A69   A(32,31,59)           117.9551         estimate D2E/DX2                !
 ! A70   A(31,32,33)           114.5438         estimate D2E/DX2                !
 ! A71   A(31,32,57)           111.2206         estimate D2E/DX2                !
 ! A72   A(31,32,58)           107.1098         estimate D2E/DX2                !
 ! A73   A(33,32,57)           106.0954         estimate D2E/DX2                !
 ! A74   A(33,32,58)           110.2564         estimate D2E/DX2                !
 ! A75   A(57,32,58)           107.4328         estimate D2E/DX2                !
 ! A76   A(32,33,34)           119.9676         estimate D2E/DX2                !
 ! A77   A(32,33,35)           118.5309         estimate D2E/DX2                !
 ! A78   A(34,33,35)           121.488          estimate D2E/DX2                !
 ! A79   A(33,35,36)           129.3344         estimate D2E/DX2                !
 ! A80   A(33,35,63)           115.4364         estimate D2E/DX2                !
 ! A81   A(36,35,63)           115.2242         estimate D2E/DX2                !
 ! A82   A(35,36,37)           116.9119         estimate D2E/DX2                !
 ! A83   A(35,36,39)           110.9202         estimate D2E/DX2                !
 ! A84   A(35,36,62)           109.9787         estimate D2E/DX2                !
 ! A85   A(37,36,39)           108.158          estimate D2E/DX2                !
 ! A86   A(37,36,62)           104.0743         estimate D2E/DX2                !
 ! A87   A(39,36,62)           106.0831         estimate D2E/DX2                !
 ! A88   A(36,37,38)           117.4704         estimate D2E/DX2                !
 ! A89   A(36,37,41)           118.4871         estimate D2E/DX2                !
 ! A90   A(38,37,41)           123.896          estimate D2E/DX2                !
 ! A91   A(36,39,40)           118.244          estimate D2E/DX2                !
 ! A92   A(36,39,60)           108.6078         estimate D2E/DX2                !
 ! A93   A(36,39,61)           108.8411         estimate D2E/DX2                !
 ! A94   A(40,39,60)           102.1316         estimate D2E/DX2                !
 ! A95   A(40,39,61)           110.3635         estimate D2E/DX2                !
 ! A96   A(60,39,61)           108.085          estimate D2E/DX2                !
 ! A97   A(1,40,39)            113.9104         estimate D2E/DX2                !
 ! A98   A(37,41,42)           119.5996         estimate D2E/DX2                !
 ! A99   A(37,41,67)           120.4825         estimate D2E/DX2                !
 ! A100  A(42,41,67)           119.8994         estimate D2E/DX2                !
 ! A101  A(41,42,43)           113.6162         estimate D2E/DX2                !
 ! A102  A(41,42,44)           109.2398         estimate D2E/DX2                !
 ! A103  A(41,42,66)           104.9784         estimate D2E/DX2                !
 ! A104  A(43,42,44)           108.9806         estimate D2E/DX2                !
 ! A105  A(43,42,66)           108.6788         estimate D2E/DX2                !
 ! A106  A(44,42,66)           111.3291         estimate D2E/DX2                !
 ! A107  A(42,43,64)           109.2147         estimate D2E/DX2                !
 ! A108  A(42,43,65)           111.7331         estimate D2E/DX2                !
 ! A109  A(42,43,72)           114.9417         estimate D2E/DX2                !
 ! A110  A(64,43,65)           107.6409         estimate D2E/DX2                !
 ! A111  A(64,43,72)           106.0327         estimate D2E/DX2                !
 ! A112  A(65,43,72)           106.8967         estimate D2E/DX2                !
 ! A113  A(42,44,45)           120.5718         estimate D2E/DX2                !
 ! A114  A(42,44,46)           118.3357         estimate D2E/DX2                !
 ! A115  A(45,44,46)           121.081          estimate D2E/DX2                !
 ! A116  A(44,46,47)           127.4292         estimate D2E/DX2                !
 ! A117  A(44,46,70)           115.225          estimate D2E/DX2                !
 ! A118  A(47,46,70)           114.29           estimate D2E/DX2                !
 ! A119  A(46,47,48)           108.1962         estimate D2E/DX2                !
 ! A120  A(46,47,68)           112.2592         estimate D2E/DX2                !
 ! A121  A(46,47,69)           111.9886         estimate D2E/DX2                !
 ! A122  A(48,47,68)           108.0614         estimate D2E/DX2                !
 ! A123  A(48,47,69)           107.9726         estimate D2E/DX2                !
 ! A124  A(68,47,69)           108.2067         estimate D2E/DX2                !
 ! A125  A(47,48,49)           125.0417         estimate D2E/DX2                !
 ! A126  A(47,48,50)           111.1299         estimate D2E/DX2                !
 ! A127  A(49,48,50)           123.8196         estimate D2E/DX2                !
 ! A128  A(48,50,71)           106.5587         estimate D2E/DX2                !
 ! A129  A(1,72,43)            102.1328         estimate D2E/DX2                !
 ! A130  A(24,73,85)           125.0616         estimate D2E/DX2                !
 ! A131  A(24,73,86)           122.2274         estimate D2E/DX2                !
 ! A132  A(85,73,86)           112.4588         estimate D2E/DX2                !
 ! A133  A(75,74,77)           119.884          estimate D2E/DX2                !
 ! A134  A(75,74,85)           110.0952         estimate D2E/DX2                !
 ! A135  A(77,74,85)           130.0201         estimate D2E/DX2                !
 ! A136  A(74,75,78)           122.4129         estimate D2E/DX2                !
 ! A137  A(74,75,86)           104.999          estimate D2E/DX2                !
 ! A138  A(78,75,86)           132.5868         estimate D2E/DX2                !
 ! A139  A(74,77,79)           117.9115         estimate D2E/DX2                !
 ! A140  A(74,77,80)           120.3612         estimate D2E/DX2                !
 ! A141  A(79,77,80)           121.7261         estimate D2E/DX2                !
 ! A142  A(75,78,81)           116.659          estimate D2E/DX2                !
 ! A143  A(75,78,82)           121.3723         estimate D2E/DX2                !
 ! A144  A(81,78,82)           121.9659         estimate D2E/DX2                !
 ! A145  A(77,79,81)           121.4583         estimate D2E/DX2                !
 ! A146  A(77,79,83)           119.5631         estimate D2E/DX2                !
 ! A147  A(81,79,83)           118.978          estimate D2E/DX2                !
 ! A148  A(78,81,79)           121.6737         estimate D2E/DX2                !
 ! A149  A(78,81,84)           119.2315         estimate D2E/DX2                !
 ! A150  A(79,81,84)           119.0943         estimate D2E/DX2                !
 ! A151  A(73,85,74)           105.2293         estimate D2E/DX2                !
 ! A152  A(73,86,75)           107.2143         estimate D2E/DX2                !
 ! A153  A(73,86,76)           127.8409         estimate D2E/DX2                !
 ! A154  A(75,86,76)           124.9344         estimate D2E/DX2                !
 ! A155  L(2,1,72,40,-1)       181.9686         estimate D2E/DX2                !
 ! A156  L(24,1,40,72,-1)      180.0            estimate D2E/DX2                !
 ! A157  L(2,1,72,40,-2)       167.4245         estimate D2E/DX2                !
 ! A158  L(24,1,40,72,-2)      180.0            estimate D2E/DX2                !
 ! D1    D(24,1,2,3)            49.1276         estimate D2E/DX2                !
 ! D2    D(24,1,2,6)           -74.5985         estimate D2E/DX2                !
 ! D3    D(24,1,2,9)           164.6086         estimate D2E/DX2                !
 ! D4    D(40,1,2,3)          -130.8725         estimate D2E/DX2                !
 ! D5    D(40,1,2,6)           105.4015         estimate D2E/DX2                !
 ! D6    D(40,1,2,9)           -15.3914         estimate D2E/DX2                !
 ! D7    D(3,2,72,43)          104.1207         estimate D2E/DX2                !
 ! D8    D(6,2,72,43)          -19.1569         estimate D2E/DX2                !
 ! D9    D(9,2,72,43)         -143.9765         estimate D2E/DX2                !
 ! D10   D(2,1,24,73)           64.6423         estimate D2E/DX2                !
 ! D11   D(72,1,24,73)        -127.9332         estimate D2E/DX2                !
 ! D12   D(73,24,40,39)        -91.8519         estimate D2E/DX2                !
 ! D13   D(2,1,40,39)         -156.4942         estimate D2E/DX2                !
 ! D14   D(72,1,40,39)          36.0813         estimate D2E/DX2                !
 ! D15   D(24,1,72,43)          54.8475         estimate D2E/DX2                !
 ! D16   D(40,1,72,43)        -125.1525         estimate D2E/DX2                !
 ! D17   D(1,2,3,4)            110.3605         estimate D2E/DX2                !
 ! D18   D(1,2,3,5)             -3.9029         estimate D2E/DX2                !
 ! D19   D(1,2,3,12)          -125.1784         estimate D2E/DX2                !
 ! D20   D(6,2,3,4)           -122.079          estimate D2E/DX2                !
 ! D21   D(6,2,3,5)            123.6576         estimate D2E/DX2                !
 ! D22   D(6,2,3,12)             2.3822         estimate D2E/DX2                !
 ! D23   D(9,2,3,4)             -9.921          estimate D2E/DX2                !
 ! D24   D(9,2,3,5)           -124.1844         estimate D2E/DX2                !
 ! D25   D(9,2,3,12)           114.5401         estimate D2E/DX2                !
 ! D26   D(1,2,6,7)           -171.9136         estimate D2E/DX2                !
 ! D27   D(1,2,6,8)             73.7668         estimate D2E/DX2                !
 ! D28   D(1,2,6,20)           -48.4505         estimate D2E/DX2                !
 ! D29   D(3,2,6,7)             63.7823         estimate D2E/DX2                !
 ! D30   D(3,2,6,8)            -50.5372         estimate D2E/DX2                !
 ! D31   D(3,2,6,20)          -172.7545         estimate D2E/DX2                !
 ! D32   D(9,2,6,7)            -47.6156         estimate D2E/DX2                !
 ! D33   D(9,2,6,8)           -161.9351         estimate D2E/DX2                !
 ! D34   D(9,2,6,20)            75.8476         estimate D2E/DX2                !
 ! D35   D(1,2,9,10)            57.6912         estimate D2E/DX2                !
 ! D36   D(1,2,9,11)           -55.204          estimate D2E/DX2                !
 ! D37   D(1,2,9,16)          -178.2749         estimate D2E/DX2                !
 ! D38   D(3,2,9,10)           176.5805         estimate D2E/DX2                !
 ! D39   D(3,2,9,11)            63.6852         estimate D2E/DX2                !
 ! D40   D(3,2,9,16)           -59.3857         estimate D2E/DX2                !
 ! D41   D(6,2,9,10)           -68.8163         estimate D2E/DX2                !
 ! D42   D(6,2,9,11)           178.2885         estimate D2E/DX2                !
 ! D43   D(6,2,9,16)            55.2176         estimate D2E/DX2                !
 ! D44   D(2,3,12,13)          -59.2285         estimate D2E/DX2                !
 ! D45   D(2,3,12,14)           62.785          estimate D2E/DX2                !
 ! D46   D(2,3,12,15)         -178.4786         estimate D2E/DX2                !
 ! D47   D(4,3,12,13)           62.497          estimate D2E/DX2                !
 ! D48   D(4,3,12,14)         -175.4895         estimate D2E/DX2                !
 ! D49   D(4,3,12,15)          -56.7531         estimate D2E/DX2                !
 ! D50   D(5,3,12,13)         -179.0825         estimate D2E/DX2                !
 ! D51   D(5,3,12,14)          -57.0689         estimate D2E/DX2                !
 ! D52   D(5,3,12,15)           61.6674         estimate D2E/DX2                !
 ! D53   D(2,6,20,21)           65.7126         estimate D2E/DX2                !
 ! D54   D(2,6,20,22)         -175.9631         estimate D2E/DX2                !
 ! D55   D(2,6,20,23)          -56.1644         estimate D2E/DX2                !
 ! D56   D(7,6,20,21)         -173.0842         estimate D2E/DX2                !
 ! D57   D(7,6,20,22)          -54.7599         estimate D2E/DX2                !
 ! D58   D(7,6,20,23)           65.0389         estimate D2E/DX2                !
 ! D59   D(8,6,20,21)          -54.2306         estimate D2E/DX2                !
 ! D60   D(8,6,20,22)           64.0937         estimate D2E/DX2                !
 ! D61   D(8,6,20,23)         -176.1075         estimate D2E/DX2                !
 ! D62   D(2,9,16,17)          175.0103         estimate D2E/DX2                !
 ! D63   D(2,9,16,18)          -66.0171         estimate D2E/DX2                !
 ! D64   D(2,9,16,19)           55.582          estimate D2E/DX2                !
 ! D65   D(10,9,16,17)         -62.5758         estimate D2E/DX2                !
 ! D66   D(10,9,16,18)          56.3968         estimate D2E/DX2                !
 ! D67   D(10,9,16,19)         177.9959         estimate D2E/DX2                !
 ! D68   D(11,9,16,17)          54.535          estimate D2E/DX2                !
 ! D69   D(11,9,16,18)         173.5076         estimate D2E/DX2                !
 ! D70   D(11,9,16,19)         -64.8933         estimate D2E/DX2                !
 ! D71   D(1,24,73,85)        -108.5517         estimate D2E/DX2                !
 ! D72   D(1,24,73,86)          77.6594         estimate D2E/DX2                !
 ! D73   D(55,25,26,27)         42.8897         estimate D2E/DX2                !
 ! D74   D(55,25,26,29)        -77.5065         estimate D2E/DX2                !
 ! D75   D(55,25,26,54)        165.8657         estimate D2E/DX2                !
 ! D76   D(56,25,26,27)        -71.9093         estimate D2E/DX2                !
 ! D77   D(56,25,26,29)        167.6944         estimate D2E/DX2                !
 ! D78   D(56,25,26,54)         51.0666         estimate D2E/DX2                !
 ! D79   D(25,26,27,28)        -44.2443         estimate D2E/DX2                !
 ! D80   D(25,26,27,31)        134.3958         estimate D2E/DX2                !
 ! D81   D(29,26,27,28)         74.4769         estimate D2E/DX2                !
 ! D82   D(29,26,27,31)       -106.883          estimate D2E/DX2                !
 ! D83   D(54,26,27,28)       -165.4069         estimate D2E/DX2                !
 ! D84   D(54,26,27,31)         13.2332         estimate D2E/DX2                !
 ! D85   D(25,26,29,30)       -177.4781         estimate D2E/DX2                !
 ! D86   D(25,26,29,51)        -53.4923         estimate D2E/DX2                !
 ! D87   D(25,26,29,52)         64.071          estimate D2E/DX2                !
 ! D88   D(27,26,29,30)         61.506          estimate D2E/DX2                !
 ! D89   D(27,26,29,51)       -174.5082         estimate D2E/DX2                !
 ! D90   D(27,26,29,52)        -56.9449         estimate D2E/DX2                !
 ! D91   D(54,26,29,30)        -60.6541         estimate D2E/DX2                !
 ! D92   D(54,26,29,51)         63.3317         estimate D2E/DX2                !
 ! D93   D(54,26,29,52)       -179.105          estimate D2E/DX2                !
 ! D94   D(26,27,31,32)          3.5343         estimate D2E/DX2                !
 ! D95   D(26,27,31,59)        176.5793         estimate D2E/DX2                !
 ! D96   D(28,27,31,32)       -177.8334         estimate D2E/DX2                !
 ! D97   D(28,27,31,59)         -4.7883         estimate D2E/DX2                !
 ! D98   D(26,29,30,53)         61.4852         estimate D2E/DX2                !
 ! D99   D(51,29,30,53)        -60.2361         estimate D2E/DX2                !
 ! D100  D(52,29,30,53)       -178.1275         estimate D2E/DX2                !
 ! D101  D(27,31,32,33)         67.8943         estimate D2E/DX2                !
 ! D102  D(27,31,32,57)        -52.3876         estimate D2E/DX2                !
 ! D103  D(27,31,32,58)       -169.5032         estimate D2E/DX2                !
 ! D104  D(59,31,32,33)       -104.8679         estimate D2E/DX2                !
 ! D105  D(59,31,32,57)        134.8501         estimate D2E/DX2                !
 ! D106  D(59,31,32,58)         17.7346         estimate D2E/DX2                !
 ! D107  D(31,32,33,34)       -113.2946         estimate D2E/DX2                !
 ! D108  D(31,32,33,35)         65.3867         estimate D2E/DX2                !
 ! D109  D(57,32,33,34)          9.7924         estimate D2E/DX2                !
 ! D110  D(57,32,33,35)       -171.5263         estimate D2E/DX2                !
 ! D111  D(58,32,33,34)        125.8231         estimate D2E/DX2                !
 ! D112  D(58,32,33,35)        -55.4955         estimate D2E/DX2                !
 ! D113  D(32,33,35,36)         -1.6779         estimate D2E/DX2                !
 ! D114  D(32,33,35,63)        177.4559         estimate D2E/DX2                !
 ! D115  D(34,33,35,36)        176.9825         estimate D2E/DX2                !
 ! D116  D(34,33,35,63)         -3.8837         estimate D2E/DX2                !
 ! D117  D(33,35,36,37)        -78.2699         estimate D2E/DX2                !
 ! D118  D(33,35,36,39)        157.1064         estimate D2E/DX2                !
 ! D119  D(33,35,36,62)         40.0706         estimate D2E/DX2                !
 ! D120  D(63,35,36,37)        102.5948         estimate D2E/DX2                !
 ! D121  D(63,35,36,39)        -22.029          estimate D2E/DX2                !
 ! D122  D(63,35,36,62)       -139.0647         estimate D2E/DX2                !
 ! D123  D(35,36,37,38)        151.7077         estimate D2E/DX2                !
 ! D124  D(35,36,37,41)        -32.518          estimate D2E/DX2                !
 ! D125  D(39,36,37,38)        -82.2846         estimate D2E/DX2                !
 ! D126  D(39,36,37,41)         93.4896         estimate D2E/DX2                !
 ! D127  D(62,36,37,38)         30.2224         estimate D2E/DX2                !
 ! D128  D(62,36,37,41)       -154.0034         estimate D2E/DX2                !
 ! D129  D(35,36,39,40)         25.3502         estimate D2E/DX2                !
 ! D130  D(35,36,39,60)        -90.2814         estimate D2E/DX2                !
 ! D131  D(35,36,39,61)        152.2681         estimate D2E/DX2                !
 ! D132  D(37,36,39,40)       -104.0943         estimate D2E/DX2                !
 ! D133  D(37,36,39,60)        140.2741         estimate D2E/DX2                !
 ! D134  D(37,36,39,61)         22.8236         estimate D2E/DX2                !
 ! D135  D(62,36,39,40)        144.7497         estimate D2E/DX2                !
 ! D136  D(62,36,39,60)         29.1181         estimate D2E/DX2                !
 ! D137  D(62,36,39,61)        -88.3323         estimate D2E/DX2                !
 ! D138  D(36,37,41,42)       -159.0863         estimate D2E/DX2                !
 ! D139  D(36,37,41,67)         19.3465         estimate D2E/DX2                !
 ! D140  D(38,37,41,42)         16.3962         estimate D2E/DX2                !
 ! D141  D(38,37,41,67)       -165.171          estimate D2E/DX2                !
 ! D142  D(36,39,40,1)          67.3138         estimate D2E/DX2                !
 ! D143  D(60,39,40,1)        -173.6109         estimate D2E/DX2                !
 ! D144  D(61,39,40,1)         -58.8728         estimate D2E/DX2                !
 ! D145  D(37,41,42,43)        105.2559         estimate D2E/DX2                !
 ! D146  D(37,41,42,44)       -132.8348         estimate D2E/DX2                !
 ! D147  D(37,41,42,66)        -13.3516         estimate D2E/DX2                !
 ! D148  D(67,41,42,43)        -73.1862         estimate D2E/DX2                !
 ! D149  D(67,41,42,44)         48.7231         estimate D2E/DX2                !
 ! D150  D(67,41,42,66)        168.2063         estimate D2E/DX2                !
 ! D151  D(41,42,43,64)       -156.49           estimate D2E/DX2                !
 ! D152  D(41,42,43,65)         84.5359         estimate D2E/DX2                !
 ! D153  D(41,42,43,72)        -37.5004         estimate D2E/DX2                !
 ! D154  D(44,42,43,64)         81.4569         estimate D2E/DX2                !
 ! D155  D(44,42,43,65)        -37.5173         estimate D2E/DX2                !
 ! D156  D(44,42,43,72)       -159.5535         estimate D2E/DX2                !
 ! D157  D(66,42,43,64)        -40.0299         estimate D2E/DX2                !
 ! D158  D(66,42,43,65)       -159.004          estimate D2E/DX2                !
 ! D159  D(66,42,43,72)         78.9597         estimate D2E/DX2                !
 ! D160  D(41,42,44,45)        -69.6901         estimate D2E/DX2                !
 ! D161  D(41,42,44,46)        111.5257         estimate D2E/DX2                !
 ! D162  D(43,42,44,45)         54.9728         estimate D2E/DX2                !
 ! D163  D(43,42,44,46)       -123.8115         estimate D2E/DX2                !
 ! D164  D(66,42,44,45)        174.8327         estimate D2E/DX2                !
 ! D165  D(66,42,44,46)         -3.9516         estimate D2E/DX2                !
 ! D166  D(42,43,72,1)          85.4594         estimate D2E/DX2                !
 ! D167  D(64,43,72,1)        -153.7907         estimate D2E/DX2                !
 ! D168  D(65,43,72,1)         -39.156          estimate D2E/DX2                !
 ! D169  D(42,44,46,47)        -15.4228         estimate D2E/DX2                !
 ! D170  D(42,44,46,70)       -174.3584         estimate D2E/DX2                !
 ! D171  D(45,44,46,47)        165.7994         estimate D2E/DX2                !
 ! D172  D(45,44,46,70)          6.8638         estimate D2E/DX2                !
 ! D173  D(44,46,47,48)       -155.8759         estimate D2E/DX2                !
 ! D174  D(44,46,47,68)         84.9691         estimate D2E/DX2                !
 ! D175  D(44,46,47,69)        -36.9933         estimate D2E/DX2                !
 ! D176  D(70,46,47,48)          3.2251         estimate D2E/DX2                !
 ! D177  D(70,46,47,68)       -115.9299         estimate D2E/DX2                !
 ! D178  D(70,46,47,69)        122.1077         estimate D2E/DX2                !
 ! D179  D(46,47,48,49)         -3.663          estimate D2E/DX2                !
 ! D180  D(46,47,48,50)        177.3865         estimate D2E/DX2                !
 ! D181  D(68,47,48,49)        118.1128         estimate D2E/DX2                !
 ! D182  D(68,47,48,50)        -60.8377         estimate D2E/DX2                !
 ! D183  D(69,47,48,49)       -125.061          estimate D2E/DX2                !
 ! D184  D(69,47,48,50)         55.9884         estimate D2E/DX2                !
 ! D185  D(47,48,50,71)        179.8904         estimate D2E/DX2                !
 ! D186  D(49,48,50,71)          0.9246         estimate D2E/DX2                !
 ! D187  D(24,73,85,74)       -173.7591         estimate D2E/DX2                !
 ! D188  D(86,73,85,74)          0.5573         estimate D2E/DX2                !
 ! D189  D(24,73,86,75)        174.1676         estimate D2E/DX2                !
 ! D190  D(24,73,86,76)         -4.6983         estimate D2E/DX2                !
 ! D191  D(85,73,86,75)         -0.3335         estimate D2E/DX2                !
 ! D192  D(85,73,86,76)       -179.1994         estimate D2E/DX2                !
 ! D193  D(77,74,75,78)         -0.2785         estimate D2E/DX2                !
 ! D194  D(77,74,75,86)       -179.9096         estimate D2E/DX2                !
 ! D195  D(85,74,75,78)       -179.9897         estimate D2E/DX2                !
 ! D196  D(85,74,75,86)          0.3792         estimate D2E/DX2                !
 ! D197  D(75,74,77,79)          0.0825         estimate D2E/DX2                !
 ! D198  D(75,74,77,80)        179.6898         estimate D2E/DX2                !
 ! D199  D(85,74,77,79)        179.7283         estimate D2E/DX2                !
 ! D200  D(85,74,77,80)         -0.6643         estimate D2E/DX2                !
 ! D201  D(75,74,85,73)         -0.5723         estimate D2E/DX2                !
 ! D202  D(77,74,85,73)        179.7546         estimate D2E/DX2                !
 ! D203  D(74,75,78,81)          0.2373         estimate D2E/DX2                !
 ! D204  D(74,75,78,82)       -179.1713         estimate D2E/DX2                !
 ! D205  D(86,75,78,81)        179.7533         estimate D2E/DX2                !
 ! D206  D(86,75,78,82)          0.3447         estimate D2E/DX2                !
 ! D207  D(74,75,86,73)         -0.0388         estimate D2E/DX2                !
 ! D208  D(74,75,86,76)        178.8687         estimate D2E/DX2                !
 ! D209  D(78,75,86,73)       -179.6158         estimate D2E/DX2                !
 ! D210  D(78,75,86,76)         -0.7082         estimate D2E/DX2                !
 ! D211  D(74,77,79,81)          0.1367         estimate D2E/DX2                !
 ! D212  D(74,77,79,83)        179.8591         estimate D2E/DX2                !
 ! D213  D(80,77,79,81)       -179.465          estimate D2E/DX2                !
 ! D214  D(80,77,79,83)          0.2574         estimate D2E/DX2                !
 ! D215  D(75,78,81,79)         -0.0126         estimate D2E/DX2                !
 ! D216  D(75,78,81,84)       -179.7639         estimate D2E/DX2                !
 ! D217  D(82,78,81,79)        179.3922         estimate D2E/DX2                !
 ! D218  D(82,78,81,84)         -0.3591         estimate D2E/DX2                !
 ! D219  D(77,79,81,78)         -0.1766         estimate D2E/DX2                !
 ! D220  D(77,79,81,84)        179.575          estimate D2E/DX2                !
 ! D221  D(83,79,81,78)       -179.9006         estimate D2E/DX2                !
 ! D222  D(83,79,81,84)         -0.149          estimate D2E/DX2                !
 --------------------------------------------------------------------------------
 Trust Radius=3.00D-01 FncErr=1.00D-07 GrdErr=1.00D-06
 Number of steps in this run=    478 maximum allowed number of steps=    516.
 GradGradGradGradGradGradGradGradGradGradGradGradGradGradGradGradGradGrad

 Stoichiometry    C26H41AuN7O7PS2Se
 Framework group  C1[X(C26H41AuN7O7PS2Se)]
 Deg. of freedom   252
 Full point group                 C1      NOp   1
 Largest Abelian subgroup         C1      NOp   1
 Largest concise Abelian subgroup C1      NOp   1
                         Standard orientation:                         
 ---------------------------------------------------------------------
 Center     Atomic      Atomic             Coordinates (Angstroms)
 Number     Number       Type             X           Y           Z
 ---------------------------------------------------------------------
      1         79           0       -1.899837   -1.205428   -0.602392
      2         15           0       -3.789875   -0.297558    0.663700
      3          6           0       -5.258790   -0.049987   -0.470040
      4          1           0       -6.003057   -0.800671   -0.173967
      5          1           0       -4.915436   -0.305682   -1.475160
      6          6           0       -3.460378    1.281020    1.568351
      7          1           0       -4.337029    1.481946    2.196470
      8          1           0       -3.419426    2.069504    0.812143
      9          6           0       -4.400354   -1.486467    1.951292
     10          1           0       -3.558648   -1.717406    2.611754
     11          1           0       -4.628141   -2.417220    1.417852
     12          6           0       -5.864514    1.358538   -0.495658
     13          1           0       -6.214381    1.680714    0.490910
     14          1           0       -5.135427    2.085544   -0.868631
     15          1           0       -6.726767    1.361496   -1.172360
     16          6           0       -5.612075   -1.015656    2.766265
     17          1           0       -5.943182   -1.821495    3.430210
     18          1           0       -5.370573   -0.152568    3.394794
     19          1           0       -6.460064   -0.743304    2.128799
     20          6           0       -2.173239    1.265256    2.400809
     21          1           0       -1.293566    1.186666    1.754964
     22          1           0       -2.086667    2.203134    2.959440
     23          1           0       -2.142184    0.446468    3.127117
     24         16           0       -2.209445    0.522021   -2.307926
     25          7           0        4.676526    2.611392    2.695613
     26          6           0        3.605546    1.616806    2.591851
     27          6           0        4.122754    0.309096    1.963703
     28          8           0        4.853305    0.360460    0.974176
     29          6           0        2.493707    2.228559    1.706851
     30          8           0        1.348651    1.394188    1.558073
     31          7           0        3.798449   -0.902483    2.514102
     32          6           0        2.923836   -1.179286    3.646400
     33          6           0        1.436978   -0.879963    3.393152
     34          8           0        0.877237    0.033394    4.009946
     35          7           0        0.777027   -1.617456    2.468775
     36          6           0        1.273571   -2.675116    1.613526
     37          6           0        2.076081   -2.246694    0.367217
     38          8           0        2.925500   -3.030282   -0.058559
     39          6           0        0.106413   -3.610521    1.145160
     40         16           0       -1.593009   -2.917371    1.087834
     41          7           0        1.748945   -1.078374   -0.244040
     42          6           0        2.137854   -0.858147   -1.632435
     43          6           0        0.960856   -0.977039   -2.633067
     44          6           0        2.768252    0.535328   -1.766296
     45          8           0        2.074305    1.554399   -1.650002
     46          7           0        4.088932    0.618189   -2.037883
     47          6           0        5.080569   -0.435822   -1.925378
     48          6           0        6.440036    0.210616   -1.742096
     49          8           0        6.651449    1.402792   -1.762298
     50          8           0        7.399974   -0.717636   -1.574192
     51          1           0        2.228999    3.201244    2.139575
     52          1           0        2.880849    2.391665    0.697873
     53          1           0        0.961195    1.254225    2.442109
     54          1           0        3.191848    1.447399    3.590974
     55          1           0        5.204963    2.586335    1.822843
     56          1           0        5.331857    2.338964    3.426611
     57          1           0        3.207676   -0.586815    4.519481
     58          1           0        3.059079   -2.234021    3.907634
     59          1           0        4.151150   -1.690993    1.981536
     60          1           0       -0.001244   -4.423740    1.869222
     61          1           0        0.370458   -4.047642    0.182132
     62          1           0        1.967567   -3.312083    2.170984
     63          1           0       -0.216043   -1.406640    2.367614
     64          1           0        1.354379   -1.219456   -3.624679
     65          1           0        0.406980   -0.042969   -2.717051
     66          1           0        2.861041   -1.642546   -1.849920
     67          1           0        1.215092   -0.367908    0.252106
     68          1           0        5.121573   -1.066093   -2.823901
     69          1           0        4.895311   -1.081606   -1.063487
     70          1           0        4.475336    1.558984   -2.027862
     71          1           0        8.239516   -0.232839   -1.465194
     72         34           0       -0.353838   -2.387595   -2.208326
     73          6           0       -1.880876    2.068682   -1.528722
     74          6           0       -2.083134    4.072568   -0.770981
     75          6           0       -0.692878    3.790934   -0.789736
     76          1           0        0.282497    2.004614   -1.432561
     77          6           0       -2.537737    5.322580   -0.320964
     78          6           0        0.266881    4.722367   -0.377252
     79          6           0       -1.588934    6.249089    0.093195
     80          1           0       -3.600014    5.548257   -0.308057
     81          6           0       -0.207218    5.953387    0.063534
     82          1           0        1.327388    4.493690   -0.411143
     83          1           0       -1.910845    7.225633    0.444351
     84          1           0        0.502001    6.709214    0.389894
     85          7           0       -2.795518    2.979450   -1.228713
     86          7           0       -0.596022    2.508527   -1.277376
 ---------------------------------------------------------------------
 Rotational constants (GHZ):      0.0708023      0.0449090      0.0390614
 General basis read from cards:  (5D, 7F)
 ======================================================================================================
                                       Pseudopotential Parameters
 ======================================================================================================
  Center     Atomic      Valence      Angular      Power
  Number     Number     Electrons     Momentum     of R      Exponent        Coefficient   SO-Coeffient
 ======================================================================================================
    1         79           19
                                      G and up 
                                                     1      622.6287956      -60.00000000    0.00000000
                                                     2      136.2843607     -555.52923120    0.00000000
                                                     2       33.1549781     -168.00197850    0.00000000
                                                     2        9.9894895      -63.03998750    0.00000000
                                                     2        3.0481312       -4.25166810    0.00000000
                                      S - G
                                                     0      194.7374304        3.00000000    0.00000000
                                                     1      351.5327447       38.60208800    0.00000000
                                                     2      122.3270402      864.83707270    0.00000000
                                                     2       32.0914617      374.99355200    0.00000000
                                                     2        5.2451812      289.79101000    0.00000000
                                                     2        4.4916223     -152.45327730    0.00000000
                                      P - G
                                                     0      420.6158801        2.00000000    0.00000000
                                                     1      109.4417815       73.88856250    0.00000000
                                                     2       34.1714280      326.67298720    0.00000000
                                                     2        5.9879750      126.58145910    0.00000000
                                      D - G
                                                     0      219.2666158        3.00000000    0.00000000
                                                     1      122.7297786       55.67931490    0.00000000
                                                     2       63.1063369      449.19873350    0.00000000
                                                     2       18.3684520      215.02690910    0.00000000
                                                     2        4.4972844       64.08409950    0.00000000
                                      F - G
                                                     0      108.5506037        4.00000000    0.00000000
                                                     1       56.4795527       51.80653350    0.00000000
                                                     2       29.2069159      231.21831130    0.00000000
                                                     2        9.5440543      119.00473860    0.00000000
                                                     2        2.8965118       15.34241880    0.00000000
    2         15
                                   No pseudopotential on this center.
    3          6
                                   No pseudopotential on this center.
    4          1
                                   No pseudopotential on this center.
    5          1
                                   No pseudopotential on this center.
    6          6
                                   No pseudopotential on this center.
    7          1
                                   No pseudopotential on this center.
    8          1
                                   No pseudopotential on this center.
    9          6
                                   No pseudopotential on this center.
   10          1
                                   No pseudopotential on this center.
   11          1
                                   No pseudopotential on this center.
   12          6
                                   No pseudopotential on this center.
   13          1
                                   No pseudopotential on this center.
   14          1
                                   No pseudopotential on this center.
   15          1
                                   No pseudopotential on this center.
   16          6
                                   No pseudopotential on this center.
   17          1
                                   No pseudopotential on this center.
   18          1
                                   No pseudopotential on this center.
   19          1
                                   No pseudopotential on this center.
   20          6
                                   No pseudopotential on this center.
   21          1
                                   No pseudopotential on this center.
   22          1
                                   No pseudopotential on this center.
   23          1
                                   No pseudopotential on this center.
   24         16
                                   No pseudopotential on this center.
   25          7
                                   No pseudopotential on this center.
   26          6
                                   No pseudopotential on this center.
   27          6
                                   No pseudopotential on this center.
   28          8
                                   No pseudopotential on this center.
   29          6
                                   No pseudopotential on this center.
   30          8
                                   No pseudopotential on this center.
   31          7
                                   No pseudopotential on this center.
   32          6
                                   No pseudopotential on this center.
   33          6
                                   No pseudopotential on this center.
   34          8
                                   No pseudopotential on this center.
   35          7
                                   No pseudopotential on this center.
   36          6
                                   No pseudopotential on this center.
   37          6
                                   No pseudopotential on this center.
   38          8
                                   No pseudopotential on this center.
   39          6
                                   No pseudopotential on this center.
   40         16
                                   No pseudopotential on this center.
   41          7
                                   No pseudopotential on this center.
   42          6
                                   No pseudopotential on this center.
   43          6
                                   No pseudopotential on this center.
   44          6
                                   No pseudopotential on this center.
   45          8
                                   No pseudopotential on this center.
   46          7
                                   No pseudopotential on this center.
   47          6
                                   No pseudopotential on this center.
   48          6
                                   No pseudopotential on this center.
   49          8
                                   No pseudopotential on this center.
   50          8
                                   No pseudopotential on this center.
   51          1
                                   No pseudopotential on this center.
   52          1
                                   No pseudopotential on this center.
   53          1
                                   No pseudopotential on this center.
   54          1
                                   No pseudopotential on this center.
   55          1
                                   No pseudopotential on this center.
   56          1
                                   No pseudopotential on this center.
   57          1
                                   No pseudopotential on this center.
   58          1
                                   No pseudopotential on this center.
   59          1
                                   No pseudopotential on this center.
   60          1
                                   No pseudopotential on this center.
   61          1
                                   No pseudopotential on this center.
   62          1
                                   No pseudopotential on this center.
   63          1
                                   No pseudopotential on this center.
   64          1
                                   No pseudopotential on this center.
   65          1
                                   No pseudopotential on this center.
   66          1
                                   No pseudopotential on this center.
   67          1
                                   No pseudopotential on this center.
   68          1
                                   No pseudopotential on this center.
   69          1
                                   No pseudopotential on this center.
   70          1
                                   No pseudopotential on this center.
   71          1
                                   No pseudopotential on this center.
   72         34
                                   No pseudopotential on this center.
   73          6
                                   No pseudopotential on this center.
   74          6
                                   No pseudopotential on this center.
   75          6
                                   No pseudopotential on this center.
   76          1
                                   No pseudopotential on this center.
   77          6
                                   No pseudopotential on this center.
   78          6
                                   No pseudopotential on this center.
   79          6
                                   No pseudopotential on this center.
   80          1
                                   No pseudopotential on this center.
   81          6
                                   No pseudopotential on this center.
   82          1
                                   No pseudopotential on this center.
   83          1
                                   No pseudopotential on this center.
   84          1
                                   No pseudopotential on this center.
   85          7
                                   No pseudopotential on this center.
   86          7
                                   No pseudopotential on this center.
 ======================================================================================================
 There are   817 symmetry adapted cartesian basis functions of A   symmetry.
 There are   766 symmetry adapted basis functions of A   symmetry.
   766 basis functions,  1571 primitive gaussians,   817 cartesian basis functions
   201 alpha electrons      201 beta electrons
       nuclear repulsion energy      8694.7805948950 Hartrees.
 NAtoms=   86 NActive=   86 NUniq=   86 SFac= 1.00D+00 NAtFMM=   60 NAOKFM=T Big=T
 Integral buffers will be    131072 words long.
 Raffenetti 2 integral format.
 Two-electron integral symmetry is turned on.
 One-electron integrals computed using PRISM.
   1 Symmetry operations used in ECPInt.
 ECPInt:  NShTT=   40186 NPrTT=  246349 LenC2=   30878 LenP2D=   95819.
 LDataN:  DoStor=T MaxTD1= 7 Len=  274
 NBasis=   766 RedAO= T EigKep=  4.10D-04  NBF=   766
 NBsUse=   766 1.00D-06 EigRej= -1.00D+00 NBFU=   766
 Defaulting to unpruned grid for atomic number  79.
 ExpMin= 2.79D-02 ExpMax= 5.61D+05 ExpMxC= 5.42D+03 IAcc=3 IRadAn=         5 AccDes= 0.00D+00
 Harris functional with IExCor=  402 and IRadAn=       5 diagonalized for initial guess.
 HarFok:  IExCor=  402 AccDes= 0.00D+00 IRadAn=         5 IDoV= 1 UseB2=F ITyADJ=14
 ICtDFT=  3500011 ScaDFX=  1.000000  1.000000  1.000000  1.000000
 Defaulting to unpruned grid for atomic number  79.
 Defaulting to unpruned grid for atomic number  79.
 Defaulting to unpruned grid for atomic number  79.
 Defaulting to unpruned grid for atomic number  79.
 Defaulting to unpruned grid for atomic number  79.
 Defaulting to unpruned grid for atomic number  79.
 Defaulting to unpruned grid for atomic number  79.
 Defaulting to unpruned grid for atomic number  79.
 FoFCou: FMM=F IPFlag=           0 FMFlag=      100000 FMFlg1=        2001
         NFxFlg=           0 DoJE=T BraDBF=F KetDBF=T FulRan=T
         wScrn=  0.000000 ICntrl=     500 IOpCl=  0 I1Cent=   200000004 NGrid=           0
         NMat0=    1 NMatS0=      1 NMatT0=    0 NMatD0=    1 NMtDS0=    0 NMtDT0=    0
 Petite list used in FoFCou.
 Requested convergence on RMS density matrix=1.00D-08 within 128 cycles.
 Requested convergence on MAX density matrix=1.00D-06.
 Requested convergence on             energy=1.00D-06.
 No special actions if energy rises.
 Defaulting to unpruned grid for atomic number  79.
 Defaulting to unpruned grid for atomic number  79.
 Defaulting to unpruned grid for atomic number  79.
 Defaulting to unpruned grid for atomic number  79.
 Defaulting to unpruned grid for atomic number  79.
 Defaulting to unpruned grid for atomic number  79.
 Defaulting to unpruned grid for atomic number  79.
 Defaulting to unpruned grid for atomic number  79.
 EnCoef did     7 forward-backward iterations
 EnCoef did   100 forward-backward iterations
 SCF Done:  E(RB3LYP) =  -5597.53383374     A.U. after   18 cycles
            NFock= 18  Conv=0.43D-08     -V/T= 2.0180

 **********************************************************************

            Population analysis using the SCF density.

 **********************************************************************

 Orbital symmetries:
       Occupied  (A) (A) (A) (A) (A) (A) (A) (A) (A) (A) (A) (A)
                 (A) (A) (A) (A) (A) (A) (A) (A) (A) (A) (A) (A)
                 (A) (A) (A) (A) (A) (A) (A) (A) (A) (A) (A) (A)
                 (A) (A) (A) (A) (A) (A) (A) (A) (A) (A) (A) (A)
                 (A) (A) (A) (A) (A) (A) (A) (A) (A) (A) (A) (A)
                 (A) (A) (A) (A) (A) (A) (A) (A) (A) (A) (A) (A)
                 (A) (A) (A) (A) (A) (A) (A) (A) (A) (A) (A) (A)
                 (A) (A) (A) (A) (A) (A) (A) (A) (A) (A) (A) (A)
                 (A) (A) (A) (A) (A) (A) (A) (A) (A) (A) (A) (A)
                 (A) (A) (A) (A) (A) (A) (A) (A) (A) (A) (A) (A)
                 (A) (A) (A) (A) (A) (A) (A) (A) (A) (A) (A) (A)
                 (A) (A) (A) (A) (A) (A) (A) (A) (A) (A) (A) (A)
                 (A) (A) (A) (A) (A) (A) (A) (A) (A) (A) (A) (A)
                 (A) (A) (A) (A) (A) (A) (A) (A) (A) (A) (A) (A)
                 (A) (A) (A) (A) (A) (A) (A) (A) (A) (A) (A) (A)
                 (A) (A) (A) (A) (A) (A) (A) (A) (A) (A) (A) (A)
                 (A) (A) (A) (A) (A) (A) (A) (A) (A)
       Virtual   (A) (A) (A) (A) (A) (A) (A) (A) (A) (A) (A) (A)
                 (A) (A) (A) (A) (A) (A) (A) (A) (A) (A) (A) (A)
                 (A) (A) (A) (A) (A) (A) (A) (A) (A) (A) (A) (A)
                 (A) (A) (A) (A) (A) (A) (A) (A) (A) (A) (A) (A)
                 (A) (A) (A) (A) (A) (A) (A) (A) (A) (A) (A) (A)
                 (A) (A) (A) (A) (A) (A) (A) (A) (A) (A) (A) (A)
                 (A) (A) (A) (A) (A) (A) (A) (A) (A) (A) (A) (A)
                 (A) (A) (A) (A) (A) (A) (A) (A) (A) (A) (A) (A)
                 (A) (A) (A) (A) (A) (A) (A) (A) (A) (A) (A) (A)
                 (A) (A) (A) (A) (A) (A) (A) (A) (A) (A) (A) (A)
                 (A) (A) (A) (A) (A) (A) (A) (A) (A) (A) (A) (A)
                 (A) (A) (A) (A) (A) (A) (A) (A) (A) (A) (A) (A)
                 (A) (A) (A) (A) (A) (A) (A) (A) (A) (A) (A) (A)
                 (A) (A) (A) (A) (A) (A) (A) (A) (A) (A) (A) (A)
                 (A) (A) (A) (A) (A) (A) (A) (A) (A) (A) (A) (A)
                 (A) (A) (A) (A) (A) (A) (A) (A) (A) (A) (A) (A)
                 (A) (A) (A) (A) (A) (A) (A) (A) (A) (A) (A) (A)
                 (A) (A) (A) (A) (A) (A) (A) (A) (A) (A) (A) (A)
                 (A) (A) (A) (A) (A) (A) (A) (A) (A) (A) (A) (A)
                 (A) (A) (A) (A) (A) (A) (A) (A) (A) (A) (A) (A)
                 (A) (A) (A) (A) (A) (A) (A) (A) (A) (A) (A) (A)
                 (A) (A) (A) (A) (A) (A) (A) (A) (A) (A) (A) (A)
                 (A) (A) (A) (A) (A) (A) (A) (A) (A) (A) (A) (A)
                 (A) (A) (A) (A) (A) (A) (A) (A) (A) (A) (A) (A)
                 (A) (A) (A) (A) (A) (A) (A) (A) (A) (A) (A) (A)
                 (A) (A) (A) (A) (A) (A) (A) (A) (A) (A) (A) (A)
                 (A) (A) (A) (A) (A) (A) (A) (A) (A) (A) (A) (A)
                 (A) (A) (A) (A) (A) (A) (A) (A) (A) (A) (A) (A)
                 (A) (A) (A) (A) (A) (A) (A) (A) (A) (A) (A) (A)
                 (A) (A) (A) (A) (A) (A) (A) (A) (A) (A) (A) (A)
                 (A) (A) (A) (A) (A) (A) (A) (A) (A) (A) (A) (A)
                 (A) (A) (A) (A) (A) (A) (A) (A) (A) (A) (A) (A)
                 (A) (A) (A) (A) (A) (A) (A) (A) (A) (A) (A) (A)
                 (A) (A) (A) (A) (A) (A) (A) (A) (A) (A) (A) (A)
                 (A) (A) (A) (A) (A) (A) (A) (A) (A) (A) (A) (A)
                 (A) (A) (A) (A) (A) (A) (A) (A) (A) (A) (A) (A)
                 (A) (A) (A) (A) (A) (A) (A) (A) (A) (A) (A) (A)
                 (A) (A) (A) (A) (A) (A) (A) (A) (A) (A) (A) (A)
                 (A) (A) (A) (A) (A) (A) (A) (A) (A) (A) (A) (A)
                 (A) (A) (A) (A) (A) (A) (A) (A) (A) (A) (A) (A)
                 (A) (A) (A) (A) (A) (A) (A) (A) (A) (A) (A) (A)
                 (A) (A) (A) (A) (A) (A) (A) (A) (A) (A) (A) (A)
                 (A) (A) (A) (A) (A) (A) (A) (A) (A) (A) (A) (A)
                 (A) (A) (A) (A) (A) (A) (A) (A) (A) (A) (A) (A)
                 (A) (A) (A) (A) (A) (A) (A) (A) (A) (A) (A) (A)
                 (A) (A) (A) (A) (A) (A) (A) (A) (A) (A) (A) (A)
                 (A) (A) (A) (A) (A) (A) (A) (A) (A) (A) (A) (A)
                 (A)
 The electronic state is 1-A.
 Alpha  occ. eigenvalues -- -453.53920 -88.85206 -88.85048 -77.12619 -57.25850
 Alpha  occ. eigenvalues --  -52.03410 -52.03321 -52.03045 -19.20697 -19.15467
 Alpha  occ. eigenvalues --  -19.14487 -19.13379 -19.12844 -19.12501 -19.11974
 Alpha  occ. eigenvalues --  -14.37508 -14.37221 -14.36569 -14.36206 -14.35893
 Alpha  occ. eigenvalues --  -14.31413 -14.31019 -10.33639 -10.30840 -10.29943
 Alpha  occ. eigenvalues --  -10.29468 -10.29189 -10.25909 -10.25101 -10.25053
 Alpha  occ. eigenvalues --  -10.24037 -10.23484 -10.22424 -10.22200 -10.22033
 Alpha  occ. eigenvalues --  -10.21000 -10.20860 -10.20517 -10.20287 -10.20065
 Alpha  occ. eigenvalues --  -10.19877 -10.19521 -10.18454 -10.17770 -10.17722
 Alpha  occ. eigenvalues --  -10.17518 -10.17420 -10.17199  -7.92659  -7.92448
 Alpha  occ. eigenvalues --   -7.60873  -6.60529  -5.89057  -5.88858  -5.88678
 Alpha  occ. eigenvalues --   -5.88553  -5.88158  -5.87857  -5.73879  -5.73580
 Alpha  occ. eigenvalues --   -5.72618  -4.76654  -4.76624  -4.76519  -4.22891
 Alpha  occ. eigenvalues --   -2.36630  -2.36590  -2.34572  -2.10068  -2.10042
 Alpha  occ. eigenvalues --   -2.09246  -2.09005  -2.08818  -1.12366  -1.05683
 Alpha  occ. eigenvalues --   -1.04881  -1.04561  -1.03976  -1.03402  -1.01942
 Alpha  occ. eigenvalues --   -1.00365  -0.95002  -0.93770  -0.93529  -0.92569
 Alpha  occ. eigenvalues --   -0.89169  -0.86567  -0.83290  -0.81862  -0.80008
 Alpha  occ. eigenvalues --   -0.77929  -0.77589  -0.77000  -0.76011  -0.75357
 Alpha  occ. eigenvalues --   -0.75187  -0.73131  -0.72980  -0.71845  -0.69427
 Alpha  occ. eigenvalues --   -0.68689  -0.68495  -0.65413  -0.64385  -0.63513
 Alpha  occ. eigenvalues --   -0.63463  -0.62389  -0.61609  -0.60920  -0.60259
 Alpha  occ. eigenvalues --   -0.59554  -0.58799  -0.58501  -0.58249  -0.57803
 Alpha  occ. eigenvalues --   -0.55400  -0.54383  -0.53178  -0.52656  -0.52240
 Alpha  occ. eigenvalues --   -0.51365  -0.51189  -0.50923  -0.50143  -0.49975
 Alpha  occ. eigenvalues --   -0.49269  -0.49111  -0.48739  -0.48421  -0.48213
 Alpha  occ. eigenvalues --   -0.47236  -0.46223  -0.46136  -0.45562  -0.45438
 Alpha  occ. eigenvalues --   -0.45239  -0.45132  -0.44860  -0.44370  -0.44177
 Alpha  occ. eigenvalues --   -0.43856  -0.43688  -0.43457  -0.43118  -0.42922
 Alpha  occ. eigenvalues --   -0.42780  -0.42618  -0.42058  -0.41956  -0.41812
 Alpha  occ. eigenvalues --   -0.41269  -0.41192  -0.41045  -0.40468  -0.40412
 Alpha  occ. eigenvalues --   -0.39809  -0.39477  -0.39147  -0.38952  -0.38699
 Alpha  occ. eigenvalues --   -0.38632  -0.38365  -0.38047  -0.37935  -0.37722
 Alpha  occ. eigenvalues --   -0.37471  -0.37260  -0.36872  -0.36784  -0.36120
 Alpha  occ. eigenvalues --   -0.35925  -0.35275  -0.34463  -0.33786  -0.33668
 Alpha  occ. eigenvalues --   -0.33491  -0.33471  -0.33331  -0.32957  -0.31511
 Alpha  occ. eigenvalues --   -0.30813  -0.29749  -0.29597  -0.29501  -0.28650
 Alpha  occ. eigenvalues --   -0.28187  -0.27759  -0.27335  -0.26795  -0.26660
 Alpha  occ. eigenvalues --   -0.26570  -0.25914  -0.25780  -0.25145  -0.24853
 Alpha  occ. eigenvalues --   -0.24272  -0.23510  -0.22773  -0.21632  -0.20836
 Alpha  occ. eigenvalues --   -0.20063
 Alpha virt. eigenvalues --   -0.10344  -0.02377  -0.01134  -0.00911  -0.00815
 Alpha virt. eigenvalues --   -0.00115   0.00411   0.01088   0.01778   0.02853
 Alpha virt. eigenvalues --    0.03245   0.03607   0.04348   0.04890   0.05212
 Alpha virt. eigenvalues --    0.06084   0.06304   0.06691   0.07287   0.08011
 Alpha virt. eigenvalues --    0.08183   0.08415   0.08893   0.09187   0.09925
 Alpha virt. eigenvalues --    0.10451   0.10819   0.10981   0.11323   0.11745
 Alpha virt. eigenvalues --    0.11904   0.12215   0.12515   0.13099   0.13583
 Alpha virt. eigenvalues --    0.14065   0.14194   0.14720   0.15014   0.15117
 Alpha virt. eigenvalues --    0.15207   0.15911   0.16148   0.16679   0.16950
 Alpha virt. eigenvalues --    0.17223   0.17342   0.17788   0.17807   0.17847
 Alpha virt. eigenvalues --    0.18005   0.18386   0.18572   0.18828   0.19147
 Alpha virt. eigenvalues --    0.19398   0.19493   0.19672   0.19921   0.20438
 Alpha virt. eigenvalues --    0.20673   0.20966   0.21222   0.21388   0.21744
 Alpha virt. eigenvalues --    0.22053   0.22423   0.22575   0.23093   0.23139
 Alpha virt. eigenvalues --    0.23828   0.24049   0.24158   0.24848   0.24942
 Alpha virt. eigenvalues --    0.25159   0.25369   0.26376   0.26418   0.26645
 Alpha virt. eigenvalues --    0.27019   0.27590   0.27820   0.28284   0.29978
 Alpha virt. eigenvalues --    0.31140   0.32496   0.33017   0.33455   0.33953
 Alpha virt. eigenvalues --    0.34320   0.34811   0.34960   0.35614   0.36045
 Alpha virt. eigenvalues --    0.36253   0.37045   0.37570   0.38140   0.38639
 Alpha virt. eigenvalues --    0.39156   0.39361   0.40584   0.40967   0.41184
 Alpha virt. eigenvalues --    0.41548   0.42274   0.42576   0.43447   0.43894
 Alpha virt. eigenvalues --    0.44561   0.45838   0.46172   0.46785   0.47672
 Alpha virt. eigenvalues --    0.47951   0.48440   0.49167   0.49551   0.50130
 Alpha virt. eigenvalues --    0.50386   0.51338   0.51409   0.51767   0.52015
 Alpha virt. eigenvalues --    0.52942   0.53421   0.53554   0.53873   0.54262
 Alpha virt. eigenvalues --    0.54483   0.54893   0.55188   0.55644   0.56033
 Alpha virt. eigenvalues --    0.56730   0.57120   0.57253   0.57459   0.58006
 Alpha virt. eigenvalues --    0.58155   0.58500   0.58928   0.59242   0.59572
 Alpha virt. eigenvalues --    0.59798   0.60184   0.60622   0.60728   0.61132
 Alpha virt. eigenvalues --    0.61464   0.62199   0.62280   0.62676   0.63138
 Alpha virt. eigenvalues --    0.63190   0.63490   0.64336   0.64658   0.65130
 Alpha virt. eigenvalues --    0.65187   0.65551   0.65967   0.66202   0.66290
 Alpha virt. eigenvalues --    0.66779   0.66888   0.67390   0.67974   0.68021
 Alpha virt. eigenvalues --    0.68508   0.68643   0.69745   0.69853   0.70248
 Alpha virt. eigenvalues --    0.70963   0.71055   0.71669   0.72029   0.72308
 Alpha virt. eigenvalues --    0.73028   0.73557   0.73657   0.74381   0.74467
 Alpha virt. eigenvalues --    0.75506   0.75692   0.75952   0.76652   0.76990
 Alpha virt. eigenvalues --    0.77421   0.77979   0.78980   0.79116   0.79905
 Alpha virt. eigenvalues --    0.80225   0.80474   0.81213   0.81609   0.81725
 Alpha virt. eigenvalues --    0.82017   0.82237   0.82685   0.82896   0.83192
 Alpha virt. eigenvalues --    0.83646   0.84063   0.84153   0.84324   0.84708
 Alpha virt. eigenvalues --    0.85192   0.85203   0.85370   0.86041   0.86159
 Alpha virt. eigenvalues --    0.86602   0.86702   0.87077   0.87480   0.88008
[...]
 1411,0.00058697,0.00052725,0.00017526,-0.00038185,-0.00002210,0.000378
 09,-0.00005975,-0.00001054,-0.00020253,0.00006766,0.00000921,-0.000305
 25,0.00012162,0.00000349,-0.00000174,0.00001584,0.00004906,0.00015575,
 -0.00002309,-0.00001705,-0.00021092,-0.00021672,0.00016640,-0.00004099
 ,0.00001121,-0.00005005,0.00004824,-0.00002967,0.00002180,-0.00003143,
 0.00003564,0.00001245,0.00002240,-0.00001225,-0.00000087,0.00001037,0.
 00002215,-0.00000460,0.00001619,-0.00001001,0.00000958,0.00011629,-0.0
 0000927,0.00000768,0.00005061,0.00000152,0.00001614,0.00003027,0.00003
 047,-0.00001109,-0.00022122,-0.00006987,-0.00000955,0.00009112,0.00012
 721,0.00003775,-0.00001743,-0.00009496,-0.00015350,0.00004209,0.000071
 43,0.00000748,-0.00001761,-0.00040494,0.00011605,-0.00007981,0.0000898
 1,0.00003078,-0.00007792,0.00006392,-0.00000305,0.00020500,0.00008511,
 -0.00009716,0.00003591,-0.00001983,-0.00000232,0.00018672,-0.00012283,
 -0.00018614,-0.25054082,0.11061505,0.02408048,-0.14998199,-0.05064442,
 -0.02973748,-0.04040537,-0.00813392,-0.00910063,0.00155919,-0.00848733
 ,-0.00414121,0.01834363,0.00512168,0.00404314,-0.00647783,0.00020599,-
 0.00129335,0.00158019,0.00380522,0.00101762,0.00106920,-0.00180714,-0.
 00015767,-0.00230629,0.00330573,0.00119872,-0.00105865,-0.00169821,-0.
 00078948,0.00084937,0.00089140,0.00035859,0.00013267,-0.00033427,-0.00
 009247,0.51484774,0.00271502,0.00086258,-0.00230159,-0.00001312,0.0020
 1489,-0.00033408,-0.00004228,-0.00078935,-0.00079748,-0.00037590,-0.00
 003776,0.00031945,0.00041793,0.00022341,0.00056403,-0.00039767,-0.0000
 2515,0.00093193,-0.00007686,-0.00021975,0.00035369,0.00029661,-0.00058
 578,0.00068959,0.00033643,-0.00025277,-0.00008208,-0.00005999,-0.00002
 932,0.00007174,-0.00006617,-0.00004580,0.00003675,0.00018586,-0.000478
 98,-0.00001221,-0.00007530,0.00014726,0.00003109,-0.00009287,-0.000400
 42,0.00040812,-0.00001683,-0.00005264,-0.00003255,0.00001886,0.0000748
 4,-0.00005196,0.00001493,-0.00002220,-0.00000072,0.00002313,0.00000212
 ,-0.00001444,0.00001802,-0.00000404,-0.00001558,-0.00006236,-0.0000607
 0,-0.00000853,-0.00000411,0.00008144,-0.00004906,0.00003854,0.00001199
 ,0.00001857,0.00002853,-0.00001248,0.00011287,0.01228478,-0.03945259,-
 0.01292568,0.00004019,0.00008078,0.00004637,-0.00002294,0.00002390,-0.
 00000924,0.00005097,0.00005347,-0.00016315,-0.00000481,0.00001737,0.00
 017987,-0.00022325,-0.00025406,-0.00008440,0.00028970,0.00012070,0.000
 24305,0.00001591,-0.00005599,0.00008594,0.00001063,0.00001056,-0.00006
 600,-0.00002658,0.00005763,-0.00000872,0.00002235,-0.00005844,0.000060
 95,-0.00010949,-0.00008200,0.00006801,-0.00000251,0.00003506,-0.000075
 85,-0.00007083,0.00056584,-0.00033638,0.00007937,-0.00028491,0.0000990
 6,0.00023116,0.00030556,-0.00041147,-0.00110264,0.00072230,-0.00125903
 ,0.00004059,-0.00036570,0.00036648,0.00005134,-0.00028224,-0.00016653,
 0.00037895,0.00029460,-0.00008169,-0.00120609,0.00132822,0.00024841,0.
 00193940,-0.00145055,-0.00003000,0.00090814,-0.00022079,-0.00031680,-0
 .00009991,0.00023518,-0.00000259,-0.00029311,-0.00005993,0.00000717,0.
 00016309,0.00004233,-0.00000135,0.00019217,-0.00004314,0.00000007,0.00
 002466,0.00005095,0.00007017,-0.00003357,-0.00003900,-0.00003425,0.000
 01899,0.00004410,-0.00005655,0.00000395,-0.00000070,0.00001055,-0.0000
 0632,-0.00003493,-0.00001135,0.00001771,-0.00002164,-0.00001360,-0.000
 00738,0.00000579,0.00000655,-0.00000005,-0.00000866,-0.00000201,-0.000
 03122,0.00000700,-0.00003144,-0.00025367,0.00006932,-0.00001031,0.0000
 2967,-0.00001700,-0.00006894,-0.00001758,-0.00003813,0.00001926,0.0000
 8440,0.00010677,0.00000104,0.00008375,-0.00020439,-0.00003317,-0.00048
 385,-0.00033970,0.00005658,0.00004661,0.00001242,0.00006461,-0.0001172
 6,0.00016057,-0.00016901,0.00003921,-0.00005040,-0.00000685,0.00003501
 ,-0.00004724,-0.00001045,-0.00010994,-0.00009724,0.00003663,-0.0000220
 3,0.00000540,-0.00000245,0.00019697,0.00057845,0.00094941,0.15708563,-
 0.19044159,-0.02680096,-0.08749118,-0.17526304,-0.05186120,-0.04347301
 ,-0.00252608,-0.01218892,-0.00385537,0.00271396,-0.00230684,-0.0154122
 3,-0.05021110,-0.02108235,-0.00209736,-0.00313510,-0.00308247,0.020160
 69,0.00877506,0.00376975,-0.00056287,0.00212197,0.00214434,-0.01366023
 ,0.00396670,0.00040099,-0.00049816,-0.00061548,-0.00037862,-0.00062181
 ,-0.00064404,-0.00088565,-0.00030108,0.00025846,0.00021599,-0.06663583
 ,0.45402015,0.00016464,0.00234060,-0.00030894,0.00024605,-0.00160552,-
 0.00070147,0.00030878,-0.00012345,-0.00013749,0.00007370,0.00006142,0.
 00010324,0.00029672,0.00024318,-0.00030272,-0.00008374,-0.00052940,-0.
 00174925,0.00019282,0.00060215,-0.00039380,0.00081413,0.00229365,-0.00
 021899,0.00005445,0.00024308,0.00025116,0.00000849,-0.00005381,-0.0000
 2462,0.00008555,0.00008560,-0.00009114,0.00016988,-0.00058647,-0.00010
 948,0.00011736,0.00024052,0.00003860,-0.00052624,0.00053365,0.00007297
 ,0.00034249,0.00025900,0.00002799,-0.00000750,0.00003832,-0.00006564,0
 .00002893,0.00004514,-0.00001433,-0.00004065,0.00001019,0.00007934,-0.
 00000905,-0.00002269,0.00000938,0.00059468,0.00057640,-0.00019225,-0.0
 0008370,0.00004834,0.00002222,-0.00002345,-0.00003401,-0.00005686,-0.0
 0036596,0.00008687,-0.00024624,0.00759631,-0.01750553,-0.00732221,-0.0
 0000565,-0.00000519,0.00001575,0.00000130,0.00000708,-0.00000721,0.000
 07868,0.00011561,-0.00013416,-0.00005694,-0.00002284,0.00013653,-0.000
 00808,-0.00000596,-0.00004326,-0.00003499,-0.00008596,0.00018238,-0.00
 004717,-0.00009833,0.00005699,0.00002839,0.00002188,-0.00004672,0.0001
 2074,-0.00001208,-0.00000086,-0.00016455,0.00000792,0.00001608,-0.0000
 9901,-0.00001860,0.00004850,-0.00000955,-0.00000519,-0.00007578,0.0000
 5174,0.00025101,-0.00020930,-0.00003942,-0.00010187,0.00009308,0.00017
 062,0.00004053,-0.00004729,-0.00036494,0.00033271,-0.00097402,-0.00003
 995,-0.00018522,0.00017973,0.00004540,-0.00017614,-0.00008470,0.000079
 34,-0.00004395,0.00014734,-0.00041430,0.00056491,-0.00000374,0.0005968
 7,-0.00044083,-0.00008286,0.00027239,-0.00010757,-0.00004539,-0.000035
 37,0.00006670,-0.00000317,-0.00006176,0.00001725,-0.00001285,0.0000335
 1,-0.00001606,0.00001506,0.00005386,-0.00002308,0.00000943,0.00000017,
 0.00000566,0.00000226,-0.00003794,-0.00001206,-0.00000203,0.00014662,0
 .00004720,-0.00002452,0.00001060,-0.00000009,0.00001573,-0.00000486,0.
 00000613,-0.00000507,0.00000593,-0.00000179,-0.00000343,-0.00000823,0.
 00000037,0.00000314,-0.00000764,-0.00000209,0.00000407,0.00000146,-0.0
 0000208,-0.00000502,-0.00009721,0.00003078,-0.00000372,-0.00003471,0.0
 0001346,-0.00001779,-0.00002704,-0.00001413,0.00000812,0.00012198,-0.0
 0000240,-0.00001382,-0.00006970,-0.00008881,-0.00003526,-0.00045933,-0
 .00003867,-0.00002594,0.00002645,0.00002080,0.00002795,-0.00000668,0.0
 0007418,-0.00007783,0.00001218,-0.00001151,-0.00000435,0.00001824,-0.0
 0001694,-0.00001027,-0.00004080,-0.00001701,-0.00001430,-0.00000532,0.
 00000336,-0.00000838,0.00025506,0.00002558,0.00042915,0.04048597,-0.03
 225116,-0.07954317,-0.04413104,-0.05027539,-0.09144048,-0.02377755,-0.
 00793316,0.00887605,-0.00232174,-0.00235900,0.00496286,-0.00341665,-0.
 01788338,-0.01099193,-0.00203271,-0.00290923,0.00263358,0.00754491,0.0
 0178145,0.00736238,0.00034785,0.00199066,-0.00260190,-0.00570076,0.002
 60216,-0.00112290,-0.00029072,-0.00046292,-0.00014408,-0.00031124,-0.0
 0064542,0.00102219,-0.00005600,0.00018265,-0.00015532,0.01901671,0.132
 55961,0.15584404,-0.00031196,0.00043381,0.00012375,-0.00087782,0.00177
 518,-0.00007153,0.00003162,-0.00034885,-0.00062738,-0.00007323,-0.0002
 0657,0.00012977,0.00000355,0.00057734,0.00032332,0.00065716,-0.0001711
 2,0.00027798,-0.00003817,-0.00023128,0.00001275,-0.00034128,0.00020735
 ,-0.00142642,0.00048655,-0.00043782,-0.00009754,-0.00006132,-0.0000302
 8,0.00010109,-0.00009147,-0.00006017,0.00004731,0.00028038,0.00057774,
 0.00052861,-0.00018370,-0.00023916,0.00007358,0.00056466,-0.00035220,-
 0.00065647,0.00005045,-0.00020613,-0.00007108,-0.00006754,0.00013925,-
 0.00007620,0.00006151,-0.00006003,-0.00000258,0.00000469,-0.00001451,-
 0.00005981,0.00007700,0.00003882,0.00001645,-0.00047926,-0.00013689,0.
 00029717,0.00016604,-0.00014866,0.00014422,0.00006399,0.00001993,-0.00
 003077,0.00022423,-0.00005695,0.00011488,0.00013595,-0.00769211,-0.003
 14325,-0.00007179,-0.00012079,-0.00010233,0.00007417,-0.00000129,0.000
 01697,-0.00024714,-0.00034535,0.00052850,0.00007897,0.00004529,-0.0005
 7444,0.00022125,0.00026041,0.00031834,-0.00034667,0.00010047,-0.000689
 74,0.00004990,0.00029735,-0.00024357,-0.00004653,-0.00004798,0.0001651
 1,-0.00008391,0.00004645,0.00012077,0.00019271,0.00000551,-0.00017598,
 0.00010906,0.00006618,-0.00018834,-0.00003419,0.00001277,0.00008047,0.
 00014028,-0.00088053,0.00043789,-0.00006184,0.00048927,-0.00015859,-0.
 00012293,0.00000656,-0.00023645,-0.00025292,0.00018020,-0.00019015,0.0
 0025805,0.00089454,-0.00029080,-0.00029595,0.00011358,0.00021835,-0.00
 011604,-0.00014690,-0.00050760,0.00191906,-0.00765098,-0.00069077,-0.0
 1136045,0.01235221,0.00153083,-0.00352880,0.00167350,0.00111744,0.0003
 0818,-0.00089787,0.00007182,0.00081603,0.00013539,-0.00002318,-0.00045
 576,-0.00002739,0.00001300,-0.00061759,0.00016221,0.00000478,-0.000009
 00,-0.00006563,-0.00010298,0.00017345,0.00009276,0.00006194,-0.0002064
 5,-0.00012035,0.00012071,-0.00003086,0.00000545,-0.00005177,0.00003964
 ,0.00003819,0.00003692,-0.00003407,0.00005325,0.00002695,0.00001651,-0
 .00001840,-0.00001532,0.00001528,0.00002243,0.00000466,0.00005359,-0.0
 0001963,0.00005143,0.00002520,0.00004836,-0.00001424,0.00004262,-0.000
 03676,0.00001507,0.00002289,0.00002234,-0.00004090,-0.00015599,-0.0000
 4632,0.00003634,0.00009286,0.00003526,0.00003538,-0.00026111,-0.000155
 26,0.00005307,0.00015216,0.00018329,0.00004335,-0.00006572,-0.00041134
 ,0.00019372,-0.00017981,0.00019864,0.00004815,-0.00014446,0.00015111,0
 .00000895,0.00042317,0.00029459,-0.00020534,0.00005835,-0.00002235,0.0
 0000031,0.00037256,0.00020791,0.00002684,-0.25083794,-0.04020958,-0.04
 022378,-0.03554430,0.01768479,0.00140345,-0.13841982,0.03379649,0.0045
 9278,-0.33089002,0.13954332,0.02581576,-0.00570532,0.00545328,0.001192
 71,0.01879446,-0.02128252,-0.00641649,-0.00394724,-0.00377018,-0.00188
 994,-0.00045868,0.00154057,0.00058461,-0.00034548,-0.00355849,-0.00205
 776,0.00179788,0.00144715,0.00111338,0.00027491,0.00030902,0.00016135,
 0.00089370,-0.00146971,-0.00061154,-0.09020801,0.04151778,0.00473789,0
 .84738784,-0.00020568,0.00102178,-0.00043602,0.00018461,0.00048264,-0.
 00036773,-0.00004293,0.00003380,-0.00003034,-0.00001851,0.00001036,-0.
 00003043,0.00039445,-0.00023357,-0.00015406,0.00012739,0.00003614,0.00
 029229,-0.00008277,0.00002129,-0.00002555,0.00003405,-0.00029073,-0.00
 022878,0.00020026,-0.00007969,0.00004355,-0.00002396,-0.00001198,0.000
 04543,-0.00001403,0.00001753,-0.00001187,0.00000918,-0.00016730,0.0001
 7929,-0.00006391,0.00008344,0.00004904,0.00000489,-0.00002021,0.000013
 13,0.00002201,-0.00002300,-0.00002030,0.00000663,0.00003875,-0.0000392
 2,0.00000869,-0.00001597,0.00000301,0.00000637,0.00000437,0.00000168,0
 .00001263,0.00000106,-0.00000758,0.00046614,-0.00027527,-0.00005686,-0
 .00021884,0.00029360,-0.00018347,-0.00000628,0.00000656,0.00003562,-0.
 00017679,0.00001420,0.00013613,-0.02665653,-0.02615084,-0.01495726,0.0
 0005791,0.00012643,0.00006612,0.00002883,0.00011055,-0.00002988,0.0000
 2976,-0.00004602,-0.00020125,0.00000438,0.00007373,0.00021357,-0.00055
 656,-0.00059389,-0.00000577,0.00086037,0.00024972,0.00033078,0.0000416
 0,0.00000510,0.00009985,-0.00000391,0.00000823,-0.00006823,-0.00008122
 ,-0.00003291,-0.00012714,0.00001596,0.00000888,0.00012324,-0.00004540,
 -0.00005633,0.00015285,0.00001511,0.00000900,-0.00005769,-0.00011331,0
 .00065360,-0.00039704,0.00012447,-0.00033953,0.00010883,0.00018138,0.0
 0023414,-0.00017516,-0.00036645,0.00039014,-0.00105377,0.00001637,-0.0
 0047024,0.00040694,0.00006404,-0.00012547,-0.00001895,0.00010266,0.000
 29362,0.00009657,-0.00170940,0.00363728,0.00054480,0.00538153,-0.00196
 541,-0.00034132,0.00145132,-0.00055608,-0.00050301,-0.00009541,0.00033
 167,-0.00008000,-0.00036410,-0.00017056,0.00001507,0.00020867,0.000110
 09,-0.00000659,0.00023179,-0.00001922,-0.00000129,0.00007368,0.0001228
 5,0.00017860,0.00005483,-0.00010249,-0.00009076,-0.00003650,0.00006390
 ,-0.00010216,-0.00001677,0.00000913,-0.00000705,0.00001012,-0.00007232
 ,-0.00000888,0.00002702,-0.00001783,-0.00001901,-0.00000276,0.00000635
 ,0.00001044,0.00000086,-0.00000648,-0.00000633,-0.00004335,0.00000755,
 -0.00004463,-0.00017524,0.00002106,0.00003120,-0.00001910,0.00000216,-
 0.00002151,-0.00000847,-0.00002854,0.00002619,0.00007065,0.00011363,-0
 .00004441,0.00000354,-0.00014098,-0.00003476,-0.00022976,-0.00019906,0
 .00008773,0.00000162,-0.00004830,0.00001958,-0.00028187,0.00026922,-0.
 00028692,0.00006600,-0.00007736,-0.00000339,0.00003371,-0.00005925,-0.
 00001142,-0.00016454,-0.00017178,0.00008745,-0.00001940,0.00000018,-0.
 00000217,-0.00002502,0.00040237,0.00030679,-0.05191235,-0.10999618,-0.
 02835707,0.05633368,-0.02427247,-0.00852957,0.03939250,-0.25957338,-0.
 07707749,0.14193600,-0.14321935,-0.04063746,-0.00087800,-0.00315689,-0
 .00220857,-0.00206454,-0.03859203,-0.01564973,0.01132601,-0.00260541,0
 .00056417,0.00005161,-0.00057931,-0.00018585,-0.01039374,0.01316777,0.
 00180069,0.00049113,0.00116056,0.00192199,0.00011240,0.00005412,0.0001
 6652,0.00019073,-0.00038635,-0.00066580,0.00820682,-0.01084615,-0.0117
 4079,-0.17155896,0.60208759,0.00041245,0.00099969,0.00005366,-0.000333
 42,0.00057846,-0.00016116,-0.00002725,-0.00008719,-0.00009927,-0.00003
 896,-0.00004875,0.00006219,0.00020390,-0.00002199,0.00005794,-0.000255
 23,0.00009578,0.00040987,0.00007563,-0.00007080,0.00012076,-0.00018536
 ,-0.00025376,-0.00026313,0.00018338,-0.00009130,0.00003195,-0.00002848
 ,-0.00004404,0.00002970,-0.00001554,-0.00000344,0.00000760,0.00006938,
 0.00004656,0.00018245,-0.00007167,-0.00000094,0.00003524,0.00015081,-0
 .00009764,-0.00012005,0.00000339,-0.00007641,-0.00002136,-0.00002406,0
 .00003490,-0.00003893,0.00001950,-0.00001704,0.00000127,-0.00000420,0.
 00000372,-0.00000500,0.00002874,0.00000849,0.00000641,-0.00066620,0.00
 026707,0.00006348,0.00032347,-0.00031620,0.00006058,0.00007953,-0.0000
 0272,0.00001088,0.00028345,-0.00003362,-0.00013264,-0.01233331,-0.0139
 8106,-0.00517014,-0.00012661,0.00001048,-0.00006457,-0.00004002,-0.000
 04244,0.00005151,0.00013355,-0.00018687,-0.00021229,-0.00010153,0.0001
 0464,0.00019288,0.00060397,0.00038274,-0.00009445,-0.00085793,0.000118
 65,-0.00049457,-0.00004582,0.00005364,0.00004369,0.00001159,-0.0000133
 0,0.00002196,0.00004999,-0.00031251,-0.00013103,-0.00009401,0.00031331
 ,-0.00003874,0.00010626,0.00018008,0.00006565,0.00003222,-0.00011298,-
 0.00008880,-0.00001997,-0.00004968,0.00003024,-0.00007578,0.00008411,0
 .00008705,-0.00001602,-0.00001365,-0.00009779,-0.00036045,0.00001783,-
 0.00028634,0.00007176,0.00003970,0.00005712,0.00012702,-0.00005148,-0.
 00017656,-0.00002214,0.00026720,-0.00012581,-0.00010286,0.00053368,0.0
 0051431,0.00071503,-0.00056225,0.00238622,0.00021454,-0.00000975,-0.00
 024116,-0.00012621,0.00002956,-0.00016152,-0.00005874,0.00001925,-0.00
 003935,0.00003492,-0.00000912,0.00003679,0.00003894,-0.00001760,0.0000
 2146,-0.00004467,-0.00001841,0.00002734,-0.00000991,-0.00005246,-0.000
 02213,-0.00002216,-0.00022796,0.00022681,-0.00000461,0.00000328,0.0000
 0538,0.00001550,-0.00000880,-0.00000783,-0.00004033,0.00001062,0.00000
 583,0.00000462,-0.00000720,0.00001091,-0.00000720,0.00001309,0.0000019
 1,0.00000999,-0.00000242,-0.00001354,-0.00001915,0.00002870,-0.0000073
 8,0.00001646,0.00000685,-0.00000035,-0.00001523,0.00000643,0.00001387,
 -0.00006374,-0.00009422,0.00001595,0.00003516,-0.00002152,0.00002236,0
 .00002148,-0.00002630,-0.00003610,0.00000863,0.00001504,0.00006137,0.0
 0025231,-0.00048431,0.00003888,0.00003934,-0.00002748,0.00000117,0.000
 01479,-0.00002489,-0.00002507,-0.00004572,-0.00003046,-0.00001077,-0.0
 0000431,0.00000091,-0.00001491,0.00000873,0.00040187,0.00030038,-0.042
 42991,-0.02778580,-0.07302968,0.01659112,-0.01297064,0.00708758,0.0069
 2925,-0.08159716,-0.08536593,0.02546564,-0.03943913,-0.02662814,-0.001
 22328,-0.00098654,0.00210916,0.00168621,-0.01679641,-0.00724984,0.0035
 3103,-0.00144144,-0.00108292,-0.00003012,-0.00005891,0.00000436,-0.004
 16968,0.00212015,0.00588656,0.00073747,0.00187237,-0.00210527,0.000106
 04,0.00018391,-0.00022222,0.00003752,-0.00084273,0.00093016,-0.0101070
 7,-0.00657217,0.01726096,0.01478413,0.19719312,0.16543291\\0.00000064,
 -0.00000308,0.00000438,-0.00000360,0.00000846,0.00000582,-0.00000562,-
 0.00000224,0.00000085,0.00000081,0.00000024,0.00000907,-0.00000130,0.0
 0000240,0.00000491,0.00000293,0.00000161,0.00000607,0.00000045,0.00000
 089,0.00000160,-0.00000156,-0.00000016,0.00000307,0.00000356,-0.000003
 02,0.00000429,0.00000019,0.00000084,0.00000578,0.00000024,0.00000255,0
 .00000429,-0.00000053,0.00000121,0.00001151,0.00000032,0.00000169,0.00
 000406,-0.00000061,0.00000069,0.00000355,-0.00000088,0.00000112,0.0000
 0421,0.00000095,0.00000152,0.00000682,0.00000199,0.00000235,0.00000725
 ,0.00000215,0.00000188,0.00000581,0.00000097,0.00000147,0.00000774,0.0
 0000366,0.00000116,0.00000292,0.00000124,0.00000056,0.00000137,0.00000
 106,0.00000069,0.00000028,0.00000300,0.00000013,0.00000189,-0.00000232
 ,-0.00000496,-0.00000139,0.00000435,0.00000125,-0.00000486,-0.00000114
 ,0.00000030,-0.00000366,-0.00000045,-0.00000269,-0.00000320,0.00000085
 ,-0.00000121,-0.00000472,0.00000064,-0.00000239,-0.00000149,0.00000304
 ,0.00000439,-0.00000639,0.00000244,0.00000286,-0.00000696,-0.00000087,
 -0.00000128,0.00000363,0.00000336,-0.00000583,-0.00000493,0.00000258,0
 .00000262,0.00000317,0.00000196,0.00000110,0.00000778,0.00000478,0.000
 00449,-0.00000210,-0.00000180,-0.00000271,0.00000506,-0.00000149,-0.00
 000042,-0.00000396,-0.00000136,-0.00000176,0.00000201,0.00000149,0.000
 00206,0.00000013,0.00000054,0.00000100,-0.00000294,0.00000034,-0.00000
 129,0.00000497,-0.00000574,-0.00000594,-0.00000186,-0.00000593,0.00000
 563,0.00000052,0.00000112,-0.00000732,-0.00000327,-0.00000040,-0.00000
 057,0.00000008,-0.00000428,-0.00000133,-0.00000573,-0.00000374,-0.0000
 0496,-0.00000602,-0.00000208,-0.00000009,-0.00000645,-0.00000186,-0.00
 000140,-0.00000578,0.00000180,0.00000048,-0.00000313,0.00000081,-0.000
 00024,-0.00000343,0.00000252,0.00000077,-0.00000063,0.00000352,0.00000
 022,-0.00000340,0.00000131,-0.00000005,-0.00000536,0.00000302,-0.00000
 044,-0.00000606,0.00000444,0.00000071,-0.00000259,0.00000318,0.0000011
 1,-0.00000338,0.00000220,-0.00000032,-0.00000173,0.00000133,0.00000101
 ,0.00000099,-0.00000189,0.00000007,0.00000134,0.00000010,0.00000098,-0
 .00000080,0.00000084,0.00000071,-0.00000054,-0.00000634,-0.00000238,-0
 .00000069,-0.00000439,0.00000134,-0.00000007,-0.00000197,-0.00000024,-
 0.00000291,0.00000112,0.00000058,-0.00000178,-0.00000254,-0.00000129,-
 0.00000517,-0.00000195,-0.00000077,-0.00000424,-0.00000292,-0.00000273
 ,-0.00000724,-0.00000283,-0.00000255,-0.00000767,-0.00000245,-0.000001
 85,-0.00000356,-0.00000687,0.00000747,-0.00000045,-0.00000160,-0.00000
 174,-0.00000100,-0.00000024,0.00000247,-0.00000516,0.00000052,0.000003
 42,-0.00000196,-0.00000112,0.00000044,0.00000160,0.00000089,-0.0000009
 6,-0.00000031,0.00000167,0.00000026,0.00000061,-0.00000002,0.00000040,
 0.00000211,-0.00000101,0.00000074,-0.00000097,-0.00000040,-0.00000035,
 -0.00000216,0.00000087,0.00000036,0.00000029,0.00000135,-0.00000007,-0
 .00000180,0.00000392,-0.00000230,0.00000417,-0.00000094,-0.00000776,0.
 00000792\\\@


 FORGIVE MY NONSENSE AS I ALSO FORGIVE THOSE WHO THINK THEY TALK SENSE

                                                       -- ROBERT FROST
 Job cpu time:       0 days 17 hours 32 minutes 51.9 seconds.
 File lengths (MBytes):  RWF=   6168 Int=      0 D2E=      0 Chk=     47 Scr=      1
 Normal termination of Gaussian 09 at Fri May  5 08:35:56 2023.
