 Entering Gaussian System, Link 0=g09
 Input=AF24-helio.com
 Output=AF24-helio.log
 Initial command:
 /home/scr/programs/g09/l1.exe "/home/scr/guest2/Gau-15502.inp" -scrdir="/home/scr/guest2/"
 Entering Link 1 = /home/scr/programs/g09/l1.exe PID=     15503.
  
 Copyright (c) 1988,1990,1992,1993,1995,1998,2003,2009,2013,
            Gaussian, Inc.  All Rights Reserved.
  
 This is part of the Gaussian(R) 09 program.  It is based on
 the Gaussian(R) 03 system (copyright 2003, Gaussian, Inc.),
 the Gaussian(R) 98 system (copyright 1998, Gaussian, Inc.),
 the Gaussian(R) 94 system (copyright 1995, Gaussian, Inc.),
 the Gaussian 92(TM) system (copyright 1992, Gaussian, Inc.),
 the Gaussian 90(TM) system (copyright 1990, Gaussian, Inc.),
 the Gaussian 88(TM) system (copyright 1988, Gaussian, Inc.),
 the Gaussian 86(TM) system (copyright 1986, Carnegie Mellon
 University), and the Gaussian 82(TM) system (copyright 1983,
 Carnegie Mellon University). Gaussian is a federally registered
 trademark of Gaussian, Inc.
  
 This software contains proprietary and confidential information,
 including trade secrets, belonging to Gaussian, Inc.
  
 This software is provided under written license and may be
 used, copied, transmitted, or stored only in accord with that
 written license.
  
 The following legend is applicable only to US Government
 contracts under FAR:
  
                    RESTRICTED RIGHTS LEGEND
  
 Use, reproduction and disclosure by the US Government is
 subject to restrictions as set forth in subparagraphs (a)
 and (c) of the Commercial Computer Software - Restricted
 Rights clause in FAR 52.227-19.
  
 Gaussian, Inc.
 340 Quinnipiac St., Bldg. 40, Wallingford CT 06492
  
  
 ---------------------------------------------------------------
 Warning -- This program may not be used in any manner that
 competes with the business of Gaussian, Inc. or will provide
 assistance to any competitor of Gaussian, Inc.  The licensee
 of this program is prohibited from giving any competitor of
 Gaussian, Inc. access to this program.  By using this program,
 the user acknowledges that Gaussian, Inc. is engaged in the
 business of creating and licensing software in the field of
 computational chemistry and represents and warrants to the
 licensee that it is not a competitor of Gaussian, Inc. and that
 it will not use this program in any manner prohibited above.
 ---------------------------------------------------------------
  

 Cite this work as:
 Gaussian 09, Revision D.01,
 M. J. Frisch, G. W. Trucks, H. B. Schlegel, G. E. Scuseria, 
 M. A. Robb, J. R. Cheeseman, G. Scalmani, V. Barone, B. Mennucci, 
 G. A. Petersson, H. Nakatsuji, M. Caricato, X. Li, H. P. Hratchian, 
 A. F. Izmaylov, J. Bloino, G. Zheng, J. L. Sonnenberg, M. Hada, 
 M. Ehara, K. Toyota, R. Fukuda, J. Hasegawa, M. Ishida, T. Nakajima, 
 Y. Honda, O. Kitao, H. Nakai, T. Vreven, J. A. Montgomery, Jr., 
 J. E. Peralta, F. Ogliaro, M. Bearpark, J. J. Heyd, E. Brothers, 
 K. N. Kudin, V. N. Staroverov, T. Keith, R. Kobayashi, J. Normand, 
 K. Raghavachari, A. Rendell, J. C. Burant, S. S. Iyengar, J. Tomasi, 
 M. Cossi, N. Rega, J. M. Millam, M. Klene, J. E. Knox, J. B. Cross, 
 V. Bakken, C. Adamo, J. Jaramillo, R. Gomperts, R. E. Stratmann, 
 O. Yazyev, A. J. Austin, R. Cammi, C. Pomelli, J. W. Ochterski, 
 R. L. Martin, K. Morokuma, V. G. Zakrzewski, G. A. Voth, 
 P. Salvador, J. J. Dannenberg, S. Dapprich, A. D. Daniels, 
 O. Farkas, J. B. Foresman, J. V. Ortiz, J. Cioslowski, 
 and D. J. Fox, Gaussian, Inc., Wallingford CT, 2013.
 
 ******************************************
 Gaussian 09:  EM64L-G09RevD.01 24-Apr-2013
                 2-May-2023 
 ******************************************
 %mem=30000MB
 %nprocshared=8
 Will use up to    8 processors via shared memory.
 ----------------------------------------
 # opt freq=noraman b3lyp/gen pseudo=read
 ----------------------------------------
 1/14=-1,18=20,19=15,26=3,38=1/1,3;
 2/9=110,12=2,17=6,18=5,40=1/2;
 3/5=7,11=2,16=1,17=8,25=1,30=1,71=1,74=-5/1,2,3;
 4//1;
 5/5=2,38=5/2;
 6/7=2,8=2,9=2,10=2,28=1/1;
 7//1,2,3,16;
 1/14=-1,18=20,19=15,26=3/3(2);
 2/9=110/2;
 99//99;
 2/9=110/2;
 3/5=7,6=1,11=2,16=1,17=8,25=1,30=1,71=1,74=-5,82=7/1,2,3;
 4/5=5,16=3,69=1/1;
 5/5=2,38=5/2;
 7//1,2,3,16;
 1/14=-1,18=20,19=15,26=3/3(-5);
 2/9=110/2;
 6/7=2,8=2,9=2,10=2,19=2,28=1/1;
 99/9=1/99;
 --
 af
 --
 Symbolic Z-matrix:
 Charge =  0 Multiplicity = 1
 Au                    0.8106   -0.63911   0.01663 
 S                    -1.08212  -2.03192   0.00884 
 P                     2.70834   0.64524   0.03238 
 C                     2.72518   1.90234   1.3612 
 C                     2.45975   1.33313   2.75228 
 H                     1.9567    2.63641   1.09324 
 H                     3.69236   2.41657   1.32906 
 H                     2.44237   2.14147   3.48966 
 H                     1.49528   0.81637   2.79044 
 H                     3.23635   0.62508   3.05719 
 C                     4.23161  -0.33549   0.28052 
 C                     4.45387  -1.4061   -0.784 
 H                     4.13987  -0.79526   1.27038 
 H                     5.07825   0.3594    0.32723 
 H                     5.35275  -1.98513  -0.55154 
 H                     3.60717  -2.09866  -0.83116 
 H                     4.58964  -0.96891  -1.77821 
 C                     2.92646   1.57437  -1.53062 
 C                     4.17982   2.43788  -1.64149 
 H                     2.0203    2.18156  -1.63794 
 H                     2.88995   0.83057  -2.33419 
 H                     4.19561   2.93851  -2.6147 
 H                     4.21108   3.21373  -0.87119 
 H                     5.09493   1.84315  -1.56361 
 C                    -2.408    -0.91145  -0.03605 
 N                    -2.363     0.40653  -0.0912 
 C                    -4.54209  -0.30539  -0.06334 
 C                    -3.68332   0.81523  -0.10926 
 C                    -5.92772  -0.19111  -0.07025 
 C                    -4.22749   2.10041  -0.16379 
 C                    -6.45026   1.09857  -0.12483 
 H                    -6.57369  -1.0629   -0.03458 
 C                    -5.61315   2.22494  -0.17095 
 H                    -3.58264   2.97383  -0.19961 
 H                    -7.52771   1.23492  -0.13193 
 H                    -6.05977   3.2143   -0.21304 
 N                    -3.69429  -1.38643  -0.01719 
 H                    -3.95412  -2.35829   0.02543 
 

 GradGradGradGradGradGradGradGradGradGradGradGradGradGradGradGradGradGrad
 Berny optimization.
 Initialization pass.
                           ----------------------------
                           !    Initial Parameters    !
                           ! (Angstroms and Degrees)  !
 --------------------------                            --------------------------
 ! Name  Definition              Value          Derivative Info.                !
 --------------------------------------------------------------------------------
 ! R1    R(1,2)                  2.35           estimate D2E/DX2                !
 ! R2    R(1,3)                  2.2916         estimate D2E/DX2                !
 ! R3    R(2,25)                 1.7365         estimate D2E/DX2                !
 ! R4    R(3,4)                  1.8293         estimate D2E/DX2                !
 ! R5    R(3,11)                 1.8286         estimate D2E/DX2                !
 ! R6    R(3,18)                 1.8313         estimate D2E/DX2                !
 ! R7    R(4,5)                  1.5263         estimate D2E/DX2                !
 ! R8    R(4,6)                  1.096          estimate D2E/DX2                !
 ! R9    R(4,7)                  1.0959         estimate D2E/DX2                !
 ! R10   R(5,8)                  1.0943         estimate D2E/DX2                !
 ! R11   R(5,9)                  1.0949         estimate D2E/DX2                !
 ! R12   R(5,10)                 1.0943         estimate D2E/DX2                !
 ! R13   R(11,12)                1.526          estimate D2E/DX2                !
 ! R14   R(11,13)                1.0953         estimate D2E/DX2                !
 ! R15   R(11,14)                1.0963         estimate D2E/DX2                !
 ! R16   R(12,15)                1.0942         estimate D2E/DX2                !
 ! R17   R(12,16)                1.0949         estimate D2E/DX2                !
 ! R18   R(12,17)                1.0945         estimate D2E/DX2                !
 ! R19   R(18,19)                1.5261         estimate D2E/DX2                !
 ! R20   R(18,20)                1.096          estimate D2E/DX2                !
 ! R21   R(18,21)                1.0956         estimate D2E/DX2                !
 ! R22   R(19,22)                1.0945         estimate D2E/DX2                !
 ! R23   R(19,23)                1.0937         estimate D2E/DX2                !
 ! R24   R(19,24)                1.0942         estimate D2E/DX2                !
 ! R25   R(25,26)                1.3199         estimate D2E/DX2                !
 ! R26   R(25,37)                1.3713         estimate D2E/DX2                !
 ! R27   R(26,28)                1.3822         estimate D2E/DX2                !
 ! R28   R(27,28)                1.4126         estimate D2E/DX2                !
 ! R29   R(27,29)                1.3904         estimate D2E/DX2                !
 ! R30   R(27,37)                1.3746         estimate D2E/DX2                !
 ! R31   R(28,30)                1.3967         estimate D2E/DX2                !
 ! R32   R(29,31)                1.3926         estimate D2E/DX2                !
 ! R33   R(29,32)                1.0856         estimate D2E/DX2                !
 ! R34   R(30,33)                1.3913         estimate D2E/DX2                !
 ! R35   R(30,34)                1.0863         estimate D2E/DX2                !
 ! R36   R(31,33)                1.4041         estimate D2E/DX2                !
 ! R37   R(31,35)                1.0861         estimate D2E/DX2                !
 ! R38   R(33,36)                1.0863         estimate D2E/DX2                !
 ! R39   R(37,38)                1.0069         estimate D2E/DX2                !
 ! A1    A(1,2,25)             103.4515         estimate D2E/DX2                !
 ! A2    A(1,3,4)              113.4389         estimate D2E/DX2                !
 ! A3    A(1,3,11)             112.9673         estimate D2E/DX2                !
 ! A4    A(1,3,18)             112.1556         estimate D2E/DX2                !
 ! A5    A(4,3,11)             105.2082         estimate D2E/DX2                !
 ! A6    A(4,3,18)             105.6777         estimate D2E/DX2                !
 ! A7    A(11,3,18)            106.7802         estimate D2E/DX2                !
 ! A8    A(3,4,5)              113.8394         estimate D2E/DX2                !
 ! A9    A(3,4,6)              106.0342         estimate D2E/DX2                !
 ! A10   A(3,4,7)              108.0162         estimate D2E/DX2                !
 ! A11   A(5,4,6)              110.529          estimate D2E/DX2                !
 ! A12   A(5,4,7)              110.8074         estimate D2E/DX2                !
 ! A13   A(6,4,7)              107.2992         estimate D2E/DX2                !
 ! A14   A(4,5,8)              109.9642         estimate D2E/DX2                !
 ! A15   A(4,5,9)              111.1611         estimate D2E/DX2                !
 ! A16   A(4,5,10)             111.8299         estimate D2E/DX2                !
 ! A17   A(8,5,9)              108.1301         estimate D2E/DX2                !
 ! A18   A(8,5,10)             107.5465         estimate D2E/DX2                !
 ! A19   A(9,5,10)             108.0633         estimate D2E/DX2                !
 ! A20   A(3,11,12)            113.762          estimate D2E/DX2                !
 ! A21   A(3,11,13)            106.1404         estimate D2E/DX2                !
 ! A22   A(3,11,14)            108.0083         estimate D2E/DX2                !
 ! A23   A(12,11,13)           110.3734         estimate D2E/DX2                !
 ! A24   A(12,11,14)           111.2188         estimate D2E/DX2                !
 ! A25   A(13,11,14)           106.9932         estimate D2E/DX2                !
 ! A26   A(11,12,15)           110.0415         estimate D2E/DX2                !
 ! A27   A(11,12,16)           111.1729         estimate D2E/DX2                !
 ! A28   A(11,12,17)           111.8065         estimate D2E/DX2                !
 ! A29   A(15,12,16)           108.041          estimate D2E/DX2                !
 ! A30   A(15,12,17)           107.6043         estimate D2E/DX2                !
 ! A31   A(16,12,17)           108.026          estimate D2E/DX2                !
 ! A32   A(3,18,19)            116.5456         estimate D2E/DX2                !
 ! A33   A(3,18,20)            105.436          estimate D2E/DX2                !
 ! A34   A(3,18,21)            106.1161         estimate D2E/DX2                !
 ! A35   A(19,18,20)           111.0037         estimate D2E/DX2                !
 ! A36   A(19,18,21)           110.9918         estimate D2E/DX2                !
 ! A37   A(20,18,21)           106.0653         estimate D2E/DX2                !
 ! A38   A(18,19,22)           109.5888         estimate D2E/DX2                !
 ! A39   A(18,19,23)           111.9429         estimate D2E/DX2                !
 ! A40   A(18,19,24)           111.9727         estimate D2E/DX2                !
 ! A41   A(22,19,23)           107.5385         estimate D2E/DX2                !
 ! A42   A(22,19,24)           107.4477         estimate D2E/DX2                !
 ! A43   A(23,19,24)           108.1516         estimate D2E/DX2                !
 ! A44   A(2,25,26)            128.2688         estimate D2E/DX2                !
 ! A45   A(2,25,37)            119.4951         estimate D2E/DX2                !
 ! A46   A(26,25,37)           112.2359         estimate D2E/DX2                !
 ! A47   A(25,26,28)           105.2615         estimate D2E/DX2                !
 ! A48   A(28,27,29)           122.7183         estimate D2E/DX2                !
 ! A49   A(28,27,37)           104.4794         estimate D2E/DX2                !
 ! A50   A(29,27,37)           132.8022         estimate D2E/DX2                !
 ! A51   A(26,28,27)           110.2255         estimate D2E/DX2                !
 ! A52   A(26,28,30)           130.1458         estimate D2E/DX2                !
 ! A53   A(27,28,30)           119.6287         estimate D2E/DX2                !
 ! A54   A(27,29,31)           116.7615         estimate D2E/DX2                !
 ! A55   A(27,29,32)           121.7921         estimate D2E/DX2                !
 ! A56   A(31,29,32)           121.4465         estimate D2E/DX2                !
 ! A57   A(28,30,33)           118.0734         estimate D2E/DX2                !
 ! A58   A(28,30,34)           120.6539         estimate D2E/DX2                !
 ! A59   A(33,30,34)           121.2727         estimate D2E/DX2                !
 ! A60   A(29,31,33)           121.3646         estimate D2E/DX2                !
 ! A61   A(29,31,35)           119.2605         estimate D2E/DX2                !
 ! A62   A(33,31,35)           119.3749         estimate D2E/DX2                !
 ! A63   A(30,33,31)           121.4534         estimate D2E/DX2                !
 ! A64   A(30,33,36)           119.419          estimate D2E/DX2                !
 ! A65   A(31,33,36)           119.1275         estimate D2E/DX2                !
 ! A66   A(25,37,27)           107.7976         estimate D2E/DX2                !
 ! A67   A(25,37,38)           125.236          estimate D2E/DX2                !
 ! A68   A(27,37,38)           126.9662         estimate D2E/DX2                !
 ! A69   L(2,1,3,34,-1)        182.2655         estimate D2E/DX2                !
 ! A70   L(2,1,3,34,-2)        179.878          estimate D2E/DX2                !
 ! D1    D(25,2,3,4)            53.9455         estimate D2E/DX2                !
 ! D2    D(25,2,3,11)          173.1675         estimate D2E/DX2                !
 ! D3    D(25,2,3,18)          -66.5408         estimate D2E/DX2                !
 ! D4    D(1,2,25,26)            1.7226         estimate D2E/DX2                !
 ! D5    D(1,2,25,37)         -178.4147         estimate D2E/DX2                !
 ! D6    D(1,3,4,5)             52.786          estimate D2E/DX2                !
 ! D7    D(1,3,4,6)            -68.9429         estimate D2E/DX2                !
 ! D8    D(1,3,4,7)            176.297          estimate D2E/DX2                !
 ! D9    D(11,3,4,5)           -71.1724         estimate D2E/DX2                !
 ! D10   D(11,3,4,6)           167.0986         estimate D2E/DX2                !
 ! D11   D(11,3,4,7)            52.3385         estimate D2E/DX2                !
 ! D12   D(18,3,4,5)           176.0573         estimate D2E/DX2                !
 ! D13   D(18,3,4,6)            54.3283         estimate D2E/DX2                !
 ! D14   D(18,3,4,7)           -60.4317         estimate D2E/DX2                !
 ! D15   D(1,3,11,12)           58.9524         estimate D2E/DX2                !
 ! D16   D(1,3,11,13)          -62.6083         estimate D2E/DX2                !
 ! D17   D(1,3,11,14)         -177.0648         estimate D2E/DX2                !
 ! D18   D(4,3,11,12)         -176.7906         estimate D2E/DX2                !
 ! D19   D(4,3,11,13)           61.6487         estimate D2E/DX2                !
 ! D20   D(4,3,11,14)          -52.8078         estimate D2E/DX2                !
 ! D21   D(18,3,11,12)         -64.7997         estimate D2E/DX2                !
 ! D22   D(18,3,11,13)         173.6396         estimate D2E/DX2                !
 ! D23   D(18,3,11,14)          59.1831         estimate D2E/DX2                !
 ! D24   D(1,3,18,19)         -178.5473         estimate D2E/DX2                !
 ! D25   D(1,3,18,20)           57.838          estimate D2E/DX2                !
 ! D26   D(1,3,18,21)          -54.4099         estimate D2E/DX2                !
 ! D27   D(4,3,18,19)           57.3719         estimate D2E/DX2                !
 ! D28   D(4,3,18,20)          -66.2428         estimate D2E/DX2                !
 ! D29   D(4,3,18,21)         -178.4907         estimate D2E/DX2                !
 ! D30   D(11,3,18,19)         -54.2952         estimate D2E/DX2                !
 ! D31   D(11,3,18,20)        -177.9099         estimate D2E/DX2                !
 ! D32   D(11,3,18,21)          69.8422         estimate D2E/DX2                !
 ! D33   D(3,4,5,8)           -177.6303         estimate D2E/DX2                !
 ! D34   D(3,4,5,9)            -57.9191         estimate D2E/DX2                !
 ! D35   D(3,4,5,10)            62.9602         estimate D2E/DX2                !
 ! D36   D(6,4,5,8)            -58.4265         estimate D2E/DX2                !
 ! D37   D(6,4,5,9)             61.2847         estimate D2E/DX2                !
 ! D38   D(6,4,5,10)          -177.836          estimate D2E/DX2                !
 ! D39   D(7,4,5,8)             60.3883         estimate D2E/DX2                !
 ! D40   D(7,4,5,9)           -179.9006         estimate D2E/DX2                !
 ! D41   D(7,4,5,10)           -59.0212         estimate D2E/DX2                !
 ! D42   D(3,11,12,15)        -177.3349         estimate D2E/DX2                !
 ! D43   D(3,11,12,16)         -57.677          estimate D2E/DX2                !
 ! D44   D(3,11,12,17)          63.1468         estimate D2E/DX2                !
 ! D45   D(13,11,12,15)        -58.1579         estimate D2E/DX2                !
 ! D46   D(13,11,12,16)         61.5            estimate D2E/DX2                !
 ! D47   D(13,11,12,17)       -177.6762         estimate D2E/DX2                !
 ! D48   D(14,11,12,15)         60.4373         estimate D2E/DX2                !
 ! D49   D(14,11,12,16)       -179.9048         estimate D2E/DX2                !
 ! D50   D(14,11,12,17)        -59.081          estimate D2E/DX2                !
 ! D51   D(3,18,19,22)         179.9759         estimate D2E/DX2                !
 ! D52   D(3,18,19,23)         -60.8014         estimate D2E/DX2                !
 ! D53   D(3,18,19,24)          60.8478         estimate D2E/DX2                !
 ! D54   D(20,18,19,22)        -59.3263         estimate D2E/DX2                !
 ! D55   D(20,18,19,23)         59.8965         estimate D2E/DX2                !
 ! D56   D(20,18,19,24)       -178.4544         estimate D2E/DX2                !
 ! D57   D(21,18,19,22)         58.3721         estimate D2E/DX2                !
 ! D58   D(21,18,19,23)        177.5949         estimate D2E/DX2                !
 ! D59   D(21,18,19,24)        -60.756          estimate D2E/DX2                !
 ! D60   D(2,25,26,28)         179.8748         estimate D2E/DX2                !
 ! D61   D(37,25,26,28)          0.004          estimate D2E/DX2                !
 ! D62   D(2,25,37,27)        -179.8741         estimate D2E/DX2                !
 ! D63   D(2,25,37,38)           0.2655         estimate D2E/DX2                !
 ! D64   D(26,25,37,27)          0.0094         estimate D2E/DX2                !
 ! D65   D(26,25,37,38)       -179.851          estimate D2E/DX2                !
 ! D66   D(25,26,28,27)         -0.0157         estimate D2E/DX2                !
 ! D67   D(25,26,28,30)       -179.9826         estimate D2E/DX2                !
 ! D68   D(29,27,28,26)       -179.9494         estimate D2E/DX2                !
 ! D69   D(29,27,28,30)          0.0215         estimate D2E/DX2                !
 ! D70   D(37,27,28,26)          0.0211         estimate D2E/DX2                !
 ! D71   D(37,27,28,30)        179.9919         estimate D2E/DX2                !
 ! D72   D(28,27,29,31)         -0.0253         estimate D2E/DX2                !
 ! D73   D(28,27,29,32)        179.9938         estimate D2E/DX2                !
 ! D74   D(37,27,29,31)       -179.9864         estimate D2E/DX2                !
 ! D75   D(37,27,29,32)          0.0328         estimate D2E/DX2                !
 ! D76   D(28,27,37,25)         -0.018          estimate D2E/DX2                !
 ! D77   D(28,27,37,38)        179.8393         estimate D2E/DX2                !
 ! D78   D(29,27,37,25)        179.9481         estimate D2E/DX2                !
 ! D79   D(29,27,37,38)         -0.1946         estimate D2E/DX2                !
 ! D80   D(26,28,30,33)        179.9521         estimate D2E/DX2                !
 ! D81   D(26,28,30,34)         -0.0361         estimate D2E/DX2                !
 ! D82   D(27,28,30,33)         -0.0121         estimate D2E/DX2                !
 ! D83   D(27,28,30,34)        179.9997         estimate D2E/DX2                !
 ! D84   D(27,29,31,33)          0.0211         estimate D2E/DX2                !
 ! D85   D(27,29,31,35)       -179.9844         estimate D2E/DX2                !
 ! D86   D(32,29,31,33)       -179.998          estimate D2E/DX2                !
 ! D87   D(32,29,31,35)         -0.0035         estimate D2E/DX2                !
 ! D88   D(28,30,33,31)          0.0084         estimate D2E/DX2                !
 ! D89   D(28,30,33,36)       -179.9948         estimate D2E/DX2                !
 ! D90   D(34,30,33,31)        179.9966         estimate D2E/DX2                !
 ! D91   D(34,30,33,36)         -0.0066         estimate D2E/DX2                !
 ! D92   D(29,31,33,30)         -0.0134         estimate D2E/DX2                !
 ! D93   D(29,31,33,36)        179.9898         estimate D2E/DX2                !
 ! D94   D(35,31,33,30)        179.9921         estimate D2E/DX2                !
 ! D95   D(35,31,33,36)         -0.0047         estimate D2E/DX2                !
 --------------------------------------------------------------------------------
 Trust Radius=3.00D-01 FncErr=1.00D-07 GrdErr=1.00D-06
 Number of steps in this run=    214 maximum allowed number of steps=    228.
 GradGradGradGradGradGradGradGradGradGradGradGradGradGradGradGradGradGrad

                          Input orientation:                          
 ---------------------------------------------------------------------
 Center     Atomic      Atomic             Coordinates (Angstroms)
 Number     Number       Type             X           Y           Z
 ---------------------------------------------------------------------
      1         79           0        0.810597   -0.639106    0.016634
      2         16           0       -1.082119   -2.031919    0.008836
      3         15           0        2.708338    0.645241    0.032383
      4          6           0        2.725177    1.902336    1.361204
      5          6           0        2.459746    1.333128    2.752275
      6          1           0        1.956703    2.636408    1.093239
      7          1           0        3.692357    2.416574    1.329055
      8          1           0        2.442366    2.141470    3.489663
      9          1           0        1.495277    0.816368    2.790440
     10          1           0        3.236349    0.625076    3.057190
     11          6           0        4.231612   -0.335490    0.280516
     12          6           0        4.453874   -1.406097   -0.783999
     13          1           0        4.139865   -0.795256    1.270378
     14          1           0        5.078249    0.359399    0.327226
     15          1           0        5.352746   -1.985126   -0.551540
     16          1           0        3.607170   -2.098661   -0.831162
     17          1           0        4.589641   -0.968913   -1.778209
     18          6           0        2.926458    1.574366   -1.530615
     19          6           0        4.179819    2.437883   -1.641493
     20          1           0        2.020304    2.181557   -1.637937
     21          1           0        2.889949    0.830572   -2.334186
     22          1           0        4.195614    2.938512   -2.614695
     23          1           0        4.211075    3.213730   -0.871191
     24          1           0        5.094929    1.843153   -1.563609
     25          6           0       -2.408001   -0.911453   -0.036052
     26          7           0       -2.362996    0.406533   -0.091195
     27          6           0       -4.542086   -0.305388   -0.063338
     28          6           0       -3.683316    0.815234   -0.109264
     29          6           0       -5.927717   -0.191106   -0.070246
     30          6           0       -4.227487    2.100415   -0.163787
     31          6           0       -6.450264    1.098571   -0.124831
     32          1           0       -6.573695   -1.062899   -0.034584
     33          6           0       -5.613152    2.224943   -0.170945
     34          1           0       -3.582639    2.973826   -0.199606
     35          1           0       -7.527709    1.234921   -0.131925
     36          1           0       -6.059767    3.214301   -0.213043
     37          7           0       -3.694290   -1.386432   -0.017190
     38          1           0       -3.954115   -2.358287    0.025431
 ---------------------------------------------------------------------
                    Distance matrix (angstroms):
                    1          2          3          4          5
     1  Au   0.000000
     2  S    2.349971   0.000000
     3  P    2.291553   4.640615   0.000000
     4  C    3.454332   5.639394   1.829299   0.000000
     5  C    3.754082   5.603107   2.816523   1.526280   0.000000
     6  H    3.633405   5.674826   2.378049   1.096001   2.168869
     7  H    4.400474   6.657904   2.405675   1.095861   2.172266
     8  H    4.738798   6.477293   3.776536   2.160441   1.094285
     9  H    3.206430   4.742682   3.017893   2.175936   1.094851
    10  H    4.089916   5.916185   3.070612   2.183817   1.094268
    11  C    3.444584   5.584570   1.828597   2.906045   3.468917
    12  C    3.808248   5.627385   2.814492   4.305348   4.897462
    13  H    3.560938   5.512707   2.378431   3.047391   3.090119
    14  H    4.393897   6.615883   2.405227   2.997785   3.699401
    15  H    4.771342   6.459388   3.775274   5.067057   5.504130
    16  H    3.266478   4.764397   3.013736   4.646758   5.092620
    17  H    4.196595   6.040892   3.069697   4.645020   5.510094
    18  C    3.430788   5.607485   1.831342   2.917310   4.314993
    19  C    4.854781   7.098641   2.860189   3.379199   4.846064
    20  H    3.486708   5.485460   2.371419   3.093486   4.492984
    21  H    3.465547   5.427792   2.380752   3.851199   5.129300
    22  H    5.584047   7.709900   3.805010   4.363899   5.864713
    23  H    5.214962   7.503945   3.109952   2.985169   4.442221
    24  H    5.197526   7.459537   3.110948   3.764805   5.082437
    25  C    3.230530   1.736497   5.348355   6.018243   6.042174
    26  N    3.343154   2.756211   5.078453   5.498763   5.674746
    27  C    5.363672   3.867491   7.313105   7.727644   7.722568
    28  C    4.725062   3.858297   6.395483   6.664297   6.796604
    29  C    6.753749   5.184078   8.677065   9.016880   8.979947
    30  C    5.737579   5.196087   7.089547   7.120700   7.335614
    31  C    7.467238   6.215691   9.171162   9.329687   9.365951
    32  H    7.396620   5.576584   9.438133   9.859506   9.752466
    33  C    7.035802   6.219603   8.472544   8.484061   8.632047
    34  H    5.692149   5.599422   6.712117   6.585800   6.922132
    35  H    8.547596   7.227564  10.254335  10.382512  10.396033
    36  H    7.880571   7.235263   9.140020   9.020795   9.214881
    37  N    4.566579   2.690868   6.717425   7.343400   7.275857
    38  H    5.065387   2.890528   7.308181   8.034310   7.886687
                    6          7          8          9         10
     6  H    0.000000
     7  H    1.765342   0.000000
     8  H    2.494730   2.511252   0.000000
     9  H    2.530998   3.086011   1.772508   0.000000
    10  H    3.088698   2.530585   1.765472   1.771745   0.000000
    11  C    3.829870   2.994008   4.431180   3.887676   3.102121
    12  C    5.108985   4.433703   5.907248   5.144829   4.512512
    13  H    4.071105   3.243387   4.053528   3.449894   2.454869
    14  H    3.938984   2.675131   4.486052   4.371948   3.303919
    15  H    5.966321   5.066408   6.467645   5.822136   4.931047
    16  H    5.371056   5.006110   6.164820   5.106220   4.761883
    17  H    5.308099   4.682065   6.483498   5.799558   5.268139
    18  C    2.992151   3.077926   5.075347   4.614581   4.695225
    19  C    3.529931   3.010354   5.425437   5.429374   5.123868
    20  H    2.769523   3.413801   5.145097   4.663681   5.093684
    21  H    3.984876   4.071682   5.986318   5.311036   5.406400
    22  H    4.341977   4.009844   6.400964   6.403967   6.200198
    23  H    3.045403   2.397000   4.826502   5.150771   4.804518
    24  H    4.187667   3.265505   5.714949   5.741909   5.127359
    25  C    5.737008   7.081924   6.728823   5.119570   6.617232
    26  N    5.003501   6.536411   6.238915   4.833017   6.427500
    27  C    7.226762   8.783729   8.209354   6.771421   8.432527
    28  C    6.047520   7.683333   7.227389   5.935159   7.612119
    29  C    8.456513  10.064982   9.390003   8.018689   9.717362
    30  C    6.333373   8.065511   7.605019   6.567059   8.261971
    31  C    8.632829  10.330715   9.655624   8.468180  10.206857
    32  H    9.366138  10.925112  10.196943   8.753326  10.423305
    33  C    7.685712   9.427578   8.848638   7.828387   9.554795
    34  H    5.698211   7.454723   7.113663   6.275367   7.913403
    35  H    9.665364  11.376320  10.646132   9.493665  11.243101
    36  H    8.142734   9.905471   9.335270   8.476419  10.189028
    37  N    7.024957   8.416519   7.899535   6.298152   7.844217
    38  H    7.811848   9.108637   8.553577   6.886188   8.354328
                   11         12         13         14         15
    11  C    0.000000
    12  C    1.526038   0.000000
    13  H    1.095276   2.166147   0.000000
    14  H    1.096288   2.177531   1.761627   0.000000
    15  H    2.161147   1.094204   2.491236   2.518804   0.000000
    16  H    2.175897   1.094887   2.529644   3.089983   1.771472
    17  H    2.183520   1.094539   3.086477   2.536929   1.766277
    18  C    2.937886   3.431267   3.864327   3.091589   4.417629
    19  C    3.374670   3.947985   4.351296   3.000521   4.703909
    20  H    3.860812   4.418454   4.670359   4.066098   5.444876
    21  H    3.161713   3.138731   4.147106   3.477610   4.143833
    22  H    4.370656   4.721628   5.388685   4.010707   5.462396
    23  H    3.731463   4.627024   4.545697   3.214872   5.332325
    24  H    2.982046   3.402406   3.988086   2.403552   3.968183
    25  C    6.672062   6.920219   6.677935   7.602038   7.851605
    26  N    6.646625   7.087688   6.751695   7.453149   8.091021
    27  C    8.780485   9.091656   8.797445   9.651183  10.048262
    28  C    8.007633   8.461882   8.105507   8.784266   9.470377
    29  C   10.166408  10.476788  10.174403  11.026891  11.432366
    30  C    8.814045   9.383300   8.969633   9.479924  10.422229
    31  C   10.785329  11.207501  10.848227  11.561027  12.206650
    32  H   10.834347  11.058331  10.796061  11.744004  11.973209
    33  C   10.182289  10.719389  10.311176  10.864368  11.752466
    34  H    8.499683   9.171193   8.718022   9.062216  10.225271
    35  H   11.870886  12.286517  11.925618  12.644664  13.283482
    36  H   10.897573  11.498292  11.059366  11.510767  12.545680
    37  N    8.000814   8.184190   7.961238   8.951200   9.082556
    38  H    8.435811   8.500360   8.336994   9.437187   9.332192
                   16         17         18         19         20
    16  H    0.000000
    17  H    1.771575   0.000000
    18  C    3.800491   3.048893   0.000000
    19  C    4.643791   3.434080   1.526063   0.000000
    20  H    4.635655   4.067755   1.096045   2.174677   0.000000
    21  H    3.369554   2.536969   1.095577   2.174175   1.751058
    22  H    5.375906   4.015338   2.155662   1.094532   2.501801
    23  H    5.346756   4.296568   2.184627   1.093746   2.540228
    24  H    4.276424   2.865150   2.185315   1.094165   3.094085
    25  C    6.182552   7.211477   6.072023   7.562729   5.634060
    26  N    6.516627   7.285398   5.604827   7.024118   4.975584
    27  C    8.379484   9.315014   7.839995   9.278348   7.192303
    28  C    7.884358   8.626145   6.803354   8.173714   6.060937
    29  C    9.753555  10.683489   9.145818  10.561377   8.441459
    30  C    8.914005   9.474644   7.302320   8.542850   6.419859
    31  C   10.577012  11.352870   9.493446  10.820937   8.672535
    32  H   10.264373  11.299077   9.972271  11.422596   9.324916
    33  C   10.205086  10.811152   8.671614   9.905056   7.773262
    34  H    8.821697   9.209959   6.789582   7.913408   5.838618
    35  H   11.644193  12.425671  10.552780  11.865586   9.712299
    36  H   11.048045  11.548113   9.229172  10.367855   8.269488
    37  N    7.381134   8.479329   7.408852   8.903108   6.929210
    38  H    7.614078   8.841903   8.076467   9.588679   7.685744
                   21         22         23         24         25
    21  H    0.000000
    22  H    2.495367   0.000000
    23  H    3.092761   1.765160   0.000000
    24  H    2.545790   1.764472   1.771757   0.000000
    25  C    6.031944   8.067178   7.843899   8.137275   0.000000
    26  N    5.727499   7.469561   7.190769   7.736441   1.319907
    27  C    7.853808   9.663318   9.468614   9.986946   2.218643
    28  C    6.939620   8.535985   8.285815   8.957082   2.147845
    29  C    9.160812  10.897273  10.725182  11.307832   3.592836
    30  C    7.548578   8.812377   8.541032   9.430436   3.521107
    31  C    9.601700  11.086908  10.894728  11.658300   4.515304
    32  H    9.921389  11.774815  11.631884  12.121875   4.168446
    33  C    8.884065  10.133755   9.898661  10.805012   4.486443
    34  H    7.144534   8.144638   7.826274   8.856586   4.062255
    35  H   10.655564  12.103829  11.927332  12.718123   5.552254
    36  H    9.501517  10.536453  10.291907  11.319511   5.512583
    37  N    7.323645   9.364975   9.186164   9.490627   1.371313
    38  H    7.910615  10.071962   9.925806  10.102591   2.118390
                   26         27         28         29         30
    26  N    0.000000
    27  C    2.292606   0.000000
    28  C    1.382247   1.412582   0.000000
    29  C    3.614533   1.390353   2.459996   0.000000
    30  C    2.520086   2.428364   1.396705   2.854926   0.000000
    31  C    4.145577   2.369816   2.781461   1.392588   2.438431
    32  H    4.460092   2.168429   3.447789   1.085625   3.940551
    33  C    3.725116   2.749788   2.390680   2.438521   1.391268
    34  H    2.844341   3.419408   2.162826   3.941182   1.086259
    35  H    5.230884   3.360238   3.867300   2.144139   3.411973
    36  H    4.643762   3.835880   3.378433   3.410957   2.144859
    37  N    2.234400   1.374607   2.203618   2.533735   3.530424
    38  H    3.192098   2.137284   3.187901   2.932735   4.471080
                   31         32         33         34         35
    31  C    0.000000
    32  H    2.166872   0.000000
    33  C    1.404136   3.427994   0.000000
    34  H    3.427163   5.026808   2.164401   0.000000
    35  H    1.086061   2.489899   2.155735   4.311838   0.000000
    36  H    2.153273   4.311660   1.086309   2.488809   2.465640
    37  N    3.712441   2.897576   4.092396   4.365500   4.645402
    38  H    4.266522   2.922983   4.878213   5.349772   5.070156
                   36         37         38
    36  H    0.000000
    37  N    5.176928   0.000000
    38  H    5.961911   1.006890   0.000000
 Stoichiometry    C13H20AuN2PS
 Framework group  C1[X(C13H20AuN2PS)]
 Deg. of freedom   108
 Full point group                 C1      NOp   1
 Largest Abelian subgroup         C1      NOp   1
 Largest concise Abelian subgroup C1      NOp   1
                         Standard orientation:                         
 ---------------------------------------------------------------------
 Center     Atomic      Atomic             Coordinates (Angstroms)
 Number     Number       Type             X           Y           Z
 ---------------------------------------------------------------------
      1         79           0        0.810597   -0.639106    0.016634
      2         16           0       -1.082119   -2.031919    0.008836
      3         15           0        2.708338    0.645241    0.032383
      4          6           0        2.725177    1.902336    1.361204
      5          6           0        2.459746    1.333128    2.752275
      6          1           0        1.956703    2.636408    1.093239
      7          1           0        3.692357    2.416574    1.329055
      8          1           0        2.442366    2.141470    3.489663
      9          1           0        1.495277    0.816368    2.790440
     10          1           0        3.236349    0.625076    3.057190
     11          6           0        4.231612   -0.335490    0.280516
     12          6           0        4.453874   -1.406097   -0.783999
     13          1           0        4.139865   -0.795256    1.270378
     14          1           0        5.078249    0.359399    0.327226
     15          1           0        5.352746   -1.985126   -0.551540
     16          1           0        3.607170   -2.098661   -0.831162
     17          1           0        4.589641   -0.968913   -1.778209
     18          6           0        2.926458    1.574366   -1.530615
     19          6           0        4.179819    2.437883   -1.641493
     20          1           0        2.020304    2.181557   -1.637937
     21          1           0        2.889949    0.830572   -2.334186
     22          1           0        4.195614    2.938512   -2.614695
     23          1           0        4.211075    3.213730   -0.871191
     24          1           0        5.094929    1.843153   -1.563609
     25          6           0       -2.408001   -0.911453   -0.036052
     26          7           0       -2.362996    0.406533   -0.091195
     27          6           0       -4.542086   -0.305388   -0.063338
     28          6           0       -3.683316    0.815234   -0.109264
     29          6           0       -5.927717   -0.191106   -0.070246
     30          6           0       -4.227487    2.100415   -0.163787
     31          6           0       -6.450264    1.098571   -0.124831
     32          1           0       -6.573695   -1.062899   -0.034584
     33          6           0       -5.613152    2.224943   -0.170945
     34          1           0       -3.582639    2.973826   -0.199606
     35          1           0       -7.527709    1.234921   -0.131925
     36          1           0       -6.059767    3.214301   -0.213043
     37          7           0       -3.694290   -1.386432   -0.017190
     38          1           0       -3.954115   -2.358287    0.025431
 ---------------------------------------------------------------------
 Rotational constants (GHZ):      0.5541368      0.1201068      0.1089276
 General basis read from cards:  (5D, 7F)
 ======================================================================================================
                                       Pseudopotential Parameters
 ======================================================================================================
  Center     Atomic      Valence      Angular      Power
  Number     Number     Electrons     Momentum     of R      Exponent        Coefficient   SO-Coeffient
 ======================================================================================================
    1         79           19
                                      G and up 
                                                     1      622.6287956      -60.00000000    0.00000000
                                                     2      136.2843607     -555.52923120    0.00000000
                                                     2       33.1549781     -168.00197850    0.00000000
                                                     2        9.9894895      -63.03998750    0.00000000
                                                     2        3.0481312       -4.25166810    0.00000000
                                      S - G
                                                     0      194.7374304        3.00000000    0.00000000
                                                     1      351.5327447       38.60208800    0.00000000
                                                     2      122.3270402      864.83707270    0.00000000
                                                     2       32.0914617      374.99355200    0.00000000
                                                     2        5.2451812      289.79101000    0.00000000
                                                     2        4.4916223     -152.45327730    0.00000000
                                      P - G
                                                     0      420.6158801        2.00000000    0.00000000
                                                     1      109.4417815       73.88856250    0.00000000
                                                     2       34.1714280      326.67298720    0.00000000
                                                     2        5.9879750      126.58145910    0.00000000
                                      D - G
                                                     0      219.2666158        3.00000000    0.00000000
                                                     1      122.7297786       55.67931490    0.00000000
                                                     2       63.1063369      449.19873350    0.00000000
                                                     2       18.3684520      215.02690910    0.00000000
                                                     2        4.4972844       64.08409950    0.00000000
                                      F - G
                                                     0      108.5506037        4.00000000    0.00000000
                                                     1       56.4795527       51.80653350    0.00000000
                                                     2       29.2069159      231.21831130    0.00000000
                                                     2        9.5440543      119.00473860    0.00000000
                                                     2        2.8965118       15.34241880    0.00000000
    2         16
                                   No pseudopotential on this center.
    3         15
                                   No pseudopotential on this center.
    4          6
                                   No pseudopotential on this center.
    5          6
                                   No pseudopotential on this center.
    6          1
                                   No pseudopotential on this center.
    7          1
                                   No pseudopotential on this center.
    8          1
                                   No pseudopotential on this center.
    9          1
                                   No pseudopotential on this center.
   10          1
                                   No pseudopotential on this center.
   11          6
                                   No pseudopotential on this center.
   12          6
                                   No pseudopotential on this center.
   13          1
                                   No pseudopotential on this center.
   14          1
                                   No pseudopotential on this center.
   15          1
                                   No pseudopotential on this center.
   16          1
                                   No pseudopotential on this center.
   17          1
                                   No pseudopotential on this center.
   18          6
                                   No pseudopotential on this center.
   19          6
                                   No pseudopotential on this center.
   20          1
                                   No pseudopotential on this center.
   21          1
                                   No pseudopotential on this center.
   22          1
                                   No pseudopotential on this center.
   23          1
                                   No pseudopotential on this center.
   24          1
                                   No pseudopotential on this center.
   25          6
                                   No pseudopotential on this center.
   26          7
                                   No pseudopotential on this center.
   27          6
                                   No pseudopotential on this center.
   28          6
                                   No pseudopotential on this center.
   29          6
                                   No pseudopotential on this center.
   30          6
                                   No pseudopotential on this center.
   31          6
                                   No pseudopotential on this center.
   32          1
                                   No pseudopotential on this center.
   33          6
                                   No pseudopotential on this center.
   34          1
                                   No pseudopotential on this center.
   35          1
                                   No pseudopotential on this center.
   36          1
                                   No pseudopotential on this center.
   37          7
                                   No pseudopotential on this center.
   38          1
                                   No pseudopotential on this center.
 ======================================================================================================
 There are   351 symmetry adapted cartesian basis functions of A   symmetry.
 There are   328 symmetry adapted basis functions of A   symmetry.
   328 basis functions,   652 primitive gaussians,   351 cartesian basis functions
    81 alpha electrons       81 beta electrons
       nuclear repulsion energy      1703.3998474841 Hartrees.
 NAtoms=   38 NActive=   38 NUniq=   38 SFac= 1.00D+00 NAtFMM=   60 NAOKFM=F Big=F
 Integral buffers will be    131072 words long.
 Raffenetti 2 integral format.
 Two-electron integral symmetry is turned on.
 One-electron integrals computed using PRISM.
   1 Symmetry operations used in ECPInt.
 ECPInt:  NShTT=    7750 NPrTT=   43467 LenC2=    6327 LenP2D=   20915.
 LDataN:  DoStor=T MaxTD1= 7 Len=  274
 NBasis=   328 RedAO= T EigKep=  4.08D-04  NBF=   328
 NBsUse=   328 1.00D-06 EigRej= -1.00D+00 NBFU=   328
 Defaulting to unpruned grid for atomic number  79.
 ExpMin= 2.79D-02 ExpMax= 2.19D+04 ExpMxC= 3.30D+03 IAcc=3 IRadAn=         5 AccDes= 0.00D+00
 Harris functional with IExCor=  402 and IRadAn=       5 diagonalized for initial guess.
 HarFok:  IExCor=  402 AccDes= 0.00D+00 IRadAn=         5 IDoV= 1 UseB2=F ITyADJ=14
 ICtDFT=  3500011 ScaDFX=  1.000000  1.000000  1.000000  1.000000
 Defaulting to unpruned grid for atomic number  79.
 Defaulting to unpruned grid for atomic number  79.
 Defaulting to unpruned grid for atomic number  79.
 Defaulting to unpruned grid for atomic number  79.
 Defaulting to unpruned grid for atomic number  79.
 Defaulting to unpruned grid for atomic number  79.
 Defaulting to unpruned grid for atomic number  79.
 Defaulting to unpruned grid for atomic number  79.
 FoFCou: FMM=F IPFlag=           0 FMFlag=      100000 FMFlg1=           0
         NFxFlg=           0 DoJE=T BraDBF=F KetDBF=T FulRan=T
         wScrn=  0.000000 ICntrl=     500 IOpCl=  0 I1Cent=   200000004 NGrid=           0
         NMat0=    1 NMatS0=      1 NMatT0=    0 NMatD0=    1 NMtDS0=    0 NMtDT0=    0
 Petite list used in FoFCou.
 Keep R1 ints in memory in canonical form, NReq=1477852469.
 Requested convergence on RMS density matrix=1.00D-08 within 128 cycles.
 Requested convergence on MAX density matrix=1.00D-06.
 Requested convergence on             energy=1.00D-06.
 No special actions if energy rises.
 Defaulting to unpruned grid for atomic number  79.
 Defaulting to unpruned grid for atomic number  79.
 Defaulting to unpruned grid for atomic number  79.
 Defaulting to unpruned grid for atomic number  79.
 Defaulting to unpruned grid for atomic number  79.
 Defaulting to unpruned grid for atomic number  79.
 Defaulting to unpruned grid for atomic number  79.
 Defaulting to unpruned grid for atomic number  79.
 EnCoef did     1 forward-backward iterations
 EnCoef did     2 forward-backward iterations
 EnCoef did     1 forward-backward iterations
 SCF Done:  E(RB3LYP) =  -1492.04147478     A.U. after   15 cycles
            NFock= 15  Conv=0.61D-08     -V/T= 2.0701

 **********************************************************************

            Population analysis using the SCF density.

 **********************************************************************

 Orbital symmetries:
       Occupied  (A) (A) (A) (A) (A) (A) (A) (A) (A) (A) (A) (A)
                 (A) (A) (A) (A) (A) (A) (A) (A) (A) (A) (A) (A)
                 (A) (A) (A) (A) (A) (A) (A) (A) (A) (A) (A) (A)
                 (A) (A) (A) (A) (A) (A) (A) (A) (A) (A) (A) (A)
                 (A) (A) (A) (A) (A) (A) (A) (A) (A) (A) (A) (A)
                 (A) (A) (A) (A) (A) (A) (A) (A) (A) (A) (A) (A)
                 (A) (A) (A) (A) (A) (A) (A) (A) (A)
       Virtual   (A) (A) (A) (A) (A) (A) (A) (A) (A) (A) (A) (A)
                 (A) (A) (A) (A) (A) (A) (A) (A) (A) (A) (A) (A)
                 (A) (A) (A) (A) (A) (A) (A) (A) (A) (A) (A) (A)
                 (A) (A) (A) (A) (A) (A) (A) (A) (A) (A) (A) (A)
                 (A) (A) (A) (A) (A) (A) (A) (A) (A) (A) (A) (A)
                 (A) (A) (A) (A) (A) (A) (A) (A) (A) (A) (A) (A)
                 (A) (A) (A) (A) (A) (A) (A) (A) (A) (A) (A) (A)
                 (A) (A) (A) (A) (A) (A) (A) (A) (A) (A) (A) (A)
                 (A) (A) (A) (A) (A) (A) (A) (A) (A) (A) (A) (A)
                 (A) (A) (A) (A) (A) (A) (A) (A) (A) (A) (A) (A)
                 (A) (A) (A) (A) (A) (A) (A) (A) (A) (A) (A) (A)
                 (A) (A) (A) (A) (A) (A) (A) (A) (A) (A) (A) (A)
                 (A) (A) (A) (A) (A) (A) (A) (A) (A) (A) (A) (A)
                 (A) (A) (A) (A) (A) (A) (A) (A) (A) (A) (A) (A)
                 (A) (A) (A) (A) (A) (A) (A) (A) (A) (A) (A) (A)
                 (A) (A) (A) (A) (A) (A) (A) (A) (A) (A) (A) (A)
                 (A) (A) (A) (A) (A) (A) (A) (A) (A) (A) (A) (A)
                 (A) (A) (A) (A) (A) (A) (A) (A) (A) (A) (A) (A)
                 (A) (A) (A) (A) (A) (A) (A) (A) (A) (A) (A) (A)
                 (A) (A) (A) (A) (A) (A) (A) (A) (A) (A) (A) (A)
                 (A) (A) (A) (A) (A) (A) (A)
 The electronic state is 1-A.
 Alpha  occ. eigenvalues --  -88.81834 -77.11930 -14.35725 -14.28305 -10.24304
 Alpha  occ. eigenvalues --  -10.21377 -10.21305 -10.21241 -10.20185 -10.19642
 Alpha  occ. eigenvalues --  -10.19401 -10.19278 -10.17741 -10.16503 -10.15846
 Alpha  occ. eigenvalues --  -10.15601 -10.15539  -7.89568  -6.60034  -5.85978
 Alpha  occ. eigenvalues --   -5.85451  -5.85154  -4.76172  -4.76161  -4.75943
 Alpha  occ. eigenvalues --   -4.16071  -2.30757  -2.28593  -2.28549  -0.99498
 Alpha  occ. eigenvalues --   -0.85286  -0.83114  -0.82038  -0.78594  -0.78503
 Alpha  occ. eigenvalues --   -0.74130  -0.71800  -0.69525  -0.67438  -0.65387
 Alpha  occ. eigenvalues --   -0.64330  -0.60300  -0.57574  -0.56973  -0.56127
 Alpha  occ. eigenvalues --   -0.51486  -0.49758  -0.48196  -0.47837  -0.47590
 Alpha  occ. eigenvalues --   -0.46323  -0.44669  -0.44176  -0.42952  -0.42133
 Alpha  occ. eigenvalues --   -0.41863  -0.41173  -0.41126  -0.40439  -0.40168
 Alpha  occ. eigenvalues --   -0.39188  -0.38891  -0.38278  -0.37303  -0.35773
 Alpha  occ. eigenvalues --   -0.34997  -0.34526  -0.34146  -0.33331  -0.32726
 Alpha  occ. eigenvalues --   -0.31520  -0.30490  -0.29558  -0.29549  -0.28154
 Alpha  occ. eigenvalues --   -0.26994  -0.25415  -0.23713  -0.23641  -0.20302
 Alpha  occ. eigenvalues --   -0.17425
 Alpha virt. eigenvalues --   -0.01313  -0.01034   0.01615   0.01871   0.03365
 Alpha virt. eigenvalues --    0.04723   0.05488   0.05645   0.07773   0.08307
 Alpha virt. eigenvalues --    0.08972   0.09345   0.10345   0.10806   0.11115
 Alpha virt. eigenvalues --    0.11338   0.11947   0.12563   0.13907   0.14021
 Alpha virt. eigenvalues --    0.14409   0.15331   0.15578   0.15972   0.16421
 Alpha virt. eigenvalues --    0.16750   0.17787   0.18842   0.19047   0.19294
 Alpha virt. eigenvalues --    0.20003   0.20255   0.20344   0.20773   0.21185
 Alpha virt. eigenvalues --    0.22681   0.23546   0.25023   0.25553   0.28756
 Alpha virt. eigenvalues --    0.29342   0.31134   0.32866   0.34337   0.35973
 Alpha virt. eigenvalues --    0.36937   0.37355   0.38246   0.39671   0.40484
 Alpha virt. eigenvalues --    0.41210   0.42461   0.42820   0.44029   0.45146
 Alpha virt. eigenvalues --    0.45709   0.47406   0.49306   0.52259   0.52425
 Alpha virt. eigenvalues --    0.53773   0.54486   0.54531   0.55409   0.56487
 Alpha virt. eigenvalues --    0.57297   0.57723   0.58020   0.58585   0.58860
 Alpha virt. eigenvalues --    0.60387   0.60703   0.61537   0.61883   0.62478
 Alpha virt. eigenvalues --    0.62753   0.63436   0.64458   0.64801   0.65201
 Alpha virt. eigenvalues --    0.66544   0.67010   0.69064   0.69423   0.70685
 Alpha virt. eigenvalues --    0.71211   0.72258   0.74077   0.75985   0.77878
 Alpha virt. eigenvalues --    0.78154   0.80001   0.81562   0.81733   0.82436
 Alpha virt. eigenvalues --    0.83773   0.84043   0.84951   0.85343   0.85701
 Alpha virt. eigenvalues --    0.86057   0.86434   0.86800   0.87098   0.87593
 Alpha virt. eigenvalues --    0.87926   0.88464   0.88772   0.89477   0.90750
 Alpha virt. eigenvalues --    0.91194   0.92113   0.92543   0.92958   0.94034
 Alpha virt. eigenvalues --    0.94889   0.95198   0.95776   0.96911   0.97721
 Alpha virt. eigenvalues --    0.97879   0.98937   0.99097   0.99960   1.00865
 Alpha virt. eigenvalues --    1.01014   1.01890   1.02191   1.03401   1.03946
 Alpha virt. eigenvalues --    1.04657   1.07116   1.08911   1.10691   1.12988
 Alpha virt. eigenvalues --    1.16765   1.17284   1.19627   1.21503   1.25902
 Alpha virt. eigenvalues --    1.26223   1.34947   1.35301   1.35728   1.36437
 Alpha virt. eigenvalues --    1.37903   1.43351   1.47509   1.47585   1.47745
 Alpha virt. eigenvalues --    1.48694   1.50077   1.50326   1.50632   1.52379
 Alpha virt. eigenvalues --    1.53027   1.54226   1.55042   1.56719   1.58327
 Alpha virt. eigenvalues --    1.59223   1.65727   1.68612   1.74344   1.77031
 Alpha virt. eigenvalues --    1.80151   1.82322   1.83355   1.84648   1.85989
 Alpha virt. eigenvalues --    1.88647   1.89679   1.90809   1.91965   1.92492
 Alpha virt. eigenvalues --    1.94382   1.94793   1.95140   1.95988   1.96535
 Alpha virt. eigenvalues --    1.96816   1.97693   1.98621   1.99274   1.99600
 Alpha virt. eigenvalues --    2.00087   2.00830   2.01384   2.01462   2.02111
 Alpha virt. eigenvalues --    2.03313   2.03693   2.04468   2.05668   2.07117
 Alpha virt. eigenvalues --    2.09545   2.10268   2.11208   2.12320   2.16399
 Alpha virt. eigenvalues --    2.17434   2.19942   2.20030   2.22151   2.24309
 Alpha virt. eigenvalues --    2.25803   2.26929   2.27076   2.27463   2.28230
 Alpha virt. eigenvalues --    2.28364   2.29242   2.29528   2.30278   2.30902
 Alpha virt. eigenvalues --    2.31037   2.31462   2.32341   2.32999   2.33300
 Alpha virt. eigenvalues --    2.33822   2.42929   2.48253   2.50550   2.57174
 Alpha virt. eigenvalues --    2.58156   2.59197   2.62258   2.62538   2.63939
 Alpha virt. eigenvalues --    2.65119   2.68834   2.70459   2.70882   2.74032
 Alpha virt. eigenvalues --    2.79217   2.86198   2.89443   2.92924   3.04441
 Alpha virt. eigenvalues --    3.11203   3.26019   3.48582  15.59941  15.60947
 Alpha virt. eigenvalues --   15.70560  43.14905
          Condensed to atoms (all electrons):
               1          2          3          4          5          6
     1  Au  18.491902   0.271823   0.322252  -0.030690   0.000339  -0.002625
     2  S    0.271823  15.732620  -0.000655   0.000014  -0.000083  -0.000018
     3  P    0.322252  -0.000655  13.605690   0.318623  -0.038738  -0.029050
     4  C   -0.030690   0.000014   0.318623   5.230132   0.365704   0.370800
     5  C    0.000339  -0.000083  -0.038738   0.365704   5.063903  -0.027693
     6  H   -0.002625  -0.000018  -0.029050   0.370800  -0.027693   0.525854
     7  H    0.004559  -0.000002  -0.031472   0.358914  -0.032670  -0.029262
     8  H   -0.000525   0.000000   0.004982  -0.028841   0.373733  -0.005160
     9  H    0.011547  -0.000057  -0.010168  -0.032028   0.384079  -0.003302
    10  H    0.000181  -0.000007  -0.006030  -0.038609   0.381080   0.004512
    11  C   -0.028461   0.000052   0.321229  -0.031114  -0.002141   0.002144
    12  C    0.000446  -0.000039  -0.038414   0.001828   0.000075  -0.000029
    13  H   -0.003373  -0.000020  -0.033514  -0.001601   0.001316   0.000039
    14  H    0.004708  -0.000002  -0.031546  -0.002776  -0.000172  -0.000003
    15  H   -0.000547   0.000000   0.005077  -0.000061   0.000000   0.000001
    16  H    0.011578  -0.000105  -0.009644   0.000022  -0.000005   0.000000
    17  H   -0.000628  -0.000003  -0.006399   0.000008  -0.000001   0.000000
    18  C   -0.029588  -0.000006   0.310484  -0.031666   0.001767  -0.001279
    19  C    0.002681   0.000000  -0.026236  -0.004244   0.000089  -0.000224
    20  H   -0.001506  -0.000024  -0.031524  -0.002854   0.000012   0.001811
    21  H   -0.000501  -0.000039  -0.031428   0.002055  -0.000025   0.000036
    22  H   -0.000133   0.000000   0.004447   0.000033   0.000000  -0.000016
    23  H    0.000508   0.000000  -0.007594   0.002315  -0.000015   0.000413
    24  H    0.000042   0.000000  -0.007679  -0.000298  -0.000007   0.000031
    25  C   -0.033994   0.315580   0.000021   0.000000   0.000001  -0.000001
    26  N    0.054884  -0.086591  -0.001060   0.000003   0.000002  -0.000003
    27  C    0.006316   0.003747  -0.000002   0.000000   0.000000   0.000000
    28  C   -0.006613   0.005719   0.000011   0.000000   0.000000   0.000000
    29  C   -0.001075  -0.000138   0.000000   0.000000   0.000000   0.000000
    30  C   -0.001441  -0.000243   0.000002   0.000000   0.000000   0.000000
    31  C    0.000024   0.000003   0.000000   0.000000   0.000000   0.000000
    32  H    0.000123  -0.000001   0.000000   0.000000   0.000000   0.000000
    33  C   -0.000248   0.000008   0.000000   0.000000   0.000000   0.000000
    34  H    0.001821  -0.000023  -0.000002   0.000000   0.000000   0.000000
    35  H    0.000002   0.000000   0.000000   0.000000   0.000000   0.000000
    36  H   -0.000011   0.000000   0.000000   0.000000   0.000000   0.000000
    37  N    0.008603  -0.068293  -0.000006   0.000000   0.000000   0.000000
    38  H   -0.000765   0.004087   0.000001   0.000000   0.000000   0.000000
               7          8          9         10         11         12
     1  Au   0.004559  -0.000525   0.011547   0.000181  -0.028461   0.000446
     2  S   -0.000002   0.000000  -0.000057  -0.000007   0.000052  -0.000039
     3  P   -0.031472   0.004982  -0.010168  -0.006030   0.321229  -0.038414
     4  C    0.358914  -0.028841  -0.032028  -0.038609  -0.031114   0.001828
     5  C   -0.032670   0.373733   0.384079   0.381080  -0.002141   0.000075
     6  H   -0.029262  -0.005160  -0.003302   0.004512   0.002144  -0.000029
     7  H    0.563946  -0.003831   0.003939  -0.003400  -0.005139   0.000000
     8  H   -0.003831   0.553244  -0.026180  -0.030430  -0.000015   0.000000
     9  H    0.003939  -0.026180   0.487299  -0.028533  -0.000075  -0.000006
    10  H   -0.003400  -0.030430  -0.028533   0.559956   0.001632  -0.000019
    11  C   -0.005139  -0.000015  -0.000075   0.001632   5.221249   0.364063
    12  C    0.000000   0.000000  -0.000006  -0.000019   0.364063   5.065401
    13  H   -0.000334  -0.000062  -0.000018   0.003160   0.373247  -0.027482
    14  H    0.003592  -0.000007   0.000004   0.000205   0.356993  -0.032376
    15  H   -0.000003   0.000000   0.000000   0.000003  -0.028415   0.374080
    16  H    0.000000   0.000000  -0.000001   0.000001  -0.032925   0.383855
    17  H    0.000000   0.000000   0.000000   0.000000  -0.038193   0.381616
    18  C   -0.002888  -0.000058   0.000017   0.000019  -0.028758  -0.001632
    19  C    0.001414   0.000000  -0.000002  -0.000005  -0.004024  -0.000769
    20  H   -0.000183  -0.000003  -0.000003   0.000002   0.002169   0.000046
    21  H   -0.000031   0.000001  -0.000001   0.000001  -0.002448   0.001425
    22  H   -0.000053   0.000000   0.000000   0.000000   0.000048  -0.000004
    23  H    0.003239   0.000004   0.000000   0.000003  -0.000258   0.000039
    24  H    0.000069   0.000000   0.000000   0.000000   0.001694   0.000428
    25  C    0.000000   0.000000  -0.000006   0.000000   0.000000   0.000000
    26  N    0.000000   0.000000  -0.000021   0.000000   0.000000   0.000000
    27  C    0.000000   0.000000   0.000000   0.000000   0.000000   0.000000
    28  C    0.000000   0.000000   0.000000   0.000000   0.000000   0.000000
    29  C    0.000000   0.000000   0.000000   0.000000   0.000000   0.000000
    30  C    0.000000   0.000000   0.000000   0.000000   0.000000   0.000000
    31  C    0.000000   0.000000   0.000000   0.000000   0.000000   0.000000
    32  H    0.000000   0.000000   0.000000   0.000000   0.000000   0.000000
    33  C    0.000000   0.000000   0.000000   0.000000   0.000000   0.000000
    34  H    0.000000   0.000000   0.000000   0.000000   0.000000   0.000000
    35  H    0.000000   0.000000   0.000000   0.000000   0.000000   0.000000
    36  H    0.000000   0.000000   0.000000   0.000000   0.000000   0.000000
    37  N    0.000000   0.000000   0.000000   0.000000   0.000000   0.000000
    38  H    0.000000   0.000000   0.000000   0.000000   0.000000   0.000000
              13         14         15         16         17         18
     1  Au  -0.003373   0.004708  -0.000547   0.011578  -0.000628  -0.029588
     2  S   -0.000020  -0.000002   0.000000  -0.000105  -0.000003  -0.000006
     3  P   -0.033514  -0.031546   0.005077  -0.009644  -0.006399   0.310484
     4  C   -0.001601  -0.002776  -0.000061   0.000022   0.000008  -0.031666
     5  C    0.001316  -0.000172   0.000000  -0.000005  -0.000001   0.001767
     6  H    0.000039  -0.000003   0.000001   0.000000   0.000000  -0.001279
     7  H   -0.000334   0.003592  -0.000003   0.000000   0.000000  -0.002888
     8  H   -0.000062  -0.000007   0.000000   0.000000   0.000000  -0.000058
     9  H   -0.000018   0.000004   0.000000  -0.000001   0.000000   0.000017
    10  H    0.003160   0.000205   0.000003   0.000001   0.000000   0.000019
    11  C    0.373247   0.356993  -0.028415  -0.032925  -0.038193  -0.028758
    12  C   -0.027482  -0.032376   0.374080   0.383855   0.381616  -0.001632
    13  H    0.526606  -0.030248  -0.004857  -0.003444   0.004483   0.002296
    14  H   -0.030248   0.565611  -0.004099   0.004100  -0.003671  -0.005003
    15  H   -0.004857  -0.004099   0.552728  -0.027041  -0.030285   0.000000
    16  H   -0.003444   0.004100  -0.027041   0.495411  -0.028825  -0.000220
    17  H    0.004483  -0.003671  -0.030285  -0.028825   0.558863   0.001941
    18  C    0.002296  -0.005003   0.000000  -0.000220   0.001941   5.242601
    19  C    0.000018   0.002191  -0.000003   0.000019   0.000315   0.348374
    20  H   -0.000026  -0.000017   0.000001  -0.000008   0.000004   0.375343
    21  H    0.000008  -0.000170  -0.000044  -0.000101   0.001772   0.373859
    22  H    0.000001  -0.000081   0.000000   0.000000  -0.000023  -0.029399
    23  H   -0.000012   0.000022   0.000000  -0.000001  -0.000006  -0.035906
    24  H    0.000012   0.002838  -0.000010  -0.000010   0.001218  -0.036360
    25  C    0.000000   0.000000   0.000000   0.000000   0.000000   0.000000
    26  N    0.000000   0.000000   0.000000   0.000000   0.000000   0.000003
    27  C    0.000000   0.000000   0.000000   0.000000   0.000000   0.000000
    28  C    0.000000   0.000000   0.000000   0.000000   0.000000   0.000000
    29  C    0.000000   0.000000   0.000000   0.000000   0.000000   0.000000
    30  C    0.000000   0.000000   0.000000   0.000000   0.000000   0.000000
    31  C    0.000000   0.000000   0.000000   0.000000   0.000000   0.000000
    32  H    0.000000   0.000000   0.000000   0.000000   0.000000   0.000000
    33  C    0.000000   0.000000   0.000000   0.000000   0.000000   0.000000
    34  H    0.000000   0.000000   0.000000   0.000000   0.000000   0.000000
    35  H    0.000000   0.000000   0.000000   0.000000   0.000000   0.000000
    36  H    0.000000   0.000000   0.000000   0.000000   0.000000   0.000000
    37  N    0.000000   0.000000   0.000000   0.000000   0.000000   0.000000
    38  H    0.000000   0.000000   0.000000   0.000000   0.000000   0.000000
              19         20         21         22         23         24
     1  Au   0.002681  -0.001506  -0.000501  -0.000133   0.000508   0.000042
     2  S    0.000000  -0.000024  -0.000039   0.000000   0.000000   0.000000
     3  P   -0.026236  -0.031524  -0.031428   0.004447  -0.007594  -0.007679
     4  C   -0.004244  -0.002854   0.002055   0.000033   0.002315  -0.000298
     5  C    0.000089   0.000012  -0.000025   0.000000  -0.000015  -0.000007
     6  H   -0.000224   0.001811   0.000036  -0.000016   0.000413   0.000031
     7  H    0.001414  -0.000183  -0.000031  -0.000053   0.003239   0.000069
     8  H    0.000000  -0.000003   0.000001   0.000000   0.000004   0.000000
     9  H   -0.000002  -0.000003  -0.000001   0.000000   0.000000   0.000000
    10  H   -0.000005   0.000002   0.000001   0.000000   0.000003   0.000000
    11  C   -0.004024   0.002169  -0.002448   0.000048  -0.000258   0.001694
    12  C   -0.000769   0.000046   0.001425  -0.000004   0.000039   0.000428
    13  H    0.000018  -0.000026   0.000008   0.000001  -0.000012   0.000012
    14  H    0.002191  -0.000017  -0.000170  -0.000081   0.000022   0.002838
    15  H   -0.000003   0.000001  -0.000044   0.000000   0.000000  -0.000010
    16  H    0.000019  -0.000008  -0.000101   0.000000  -0.000001  -0.000010
    17  H    0.000315   0.000004   0.001772  -0.000023  -0.000006   0.001218
    18  C    0.348374   0.375343   0.373859  -0.029399  -0.035906  -0.036360
    19  C    5.062008  -0.032476  -0.033778   0.378249   0.382271   0.381928
    20  H   -0.032476   0.514682  -0.024309  -0.003939  -0.003016   0.004321
    21  H   -0.033778  -0.024309   0.519429  -0.004067   0.004315  -0.003270
    22  H    0.378249  -0.003939  -0.004067   0.545412  -0.029375  -0.029722
    23  H    0.382271  -0.003016   0.004315  -0.029375   0.554069  -0.030877
    24  H    0.381928   0.004321  -0.003270  -0.029722  -0.030877   0.557485
    25  C    0.000000  -0.000001   0.000000   0.000000   0.000000   0.000000
    26  N    0.000000  -0.000006   0.000000   0.000000   0.000000   0.000000
    27  C    0.000000   0.000000   0.000000   0.000000   0.000000   0.000000
    28  C    0.000000   0.000000   0.000000   0.000000   0.000000   0.000000
    29  C    0.000000   0.000000   0.000000   0.000000   0.000000   0.000000
    30  C    0.000000   0.000000   0.000000   0.000000   0.000000   0.000000
    31  C    0.000000   0.000000   0.000000   0.000000   0.000000   0.000000
    32  H    0.000000   0.000000   0.000000   0.000000   0.000000   0.000000
    33  C    0.000000   0.000000   0.000000   0.000000   0.000000   0.000000
    34  H    0.000000   0.000000   0.000000   0.000000   0.000000   0.000000
    35  H    0.000000   0.000000   0.000000   0.000000   0.000000   0.000000
    36  H    0.000000   0.000000   0.000000   0.000000   0.000000   0.000000
    37  N    0.000000   0.000000   0.000000   0.000000   0.000000   0.000000
    38  H    0.000000   0.000000   0.000000   0.000000   0.000000   0.000000
              25         26         27         28         29         30
     1  Au  -0.033994   0.054884   0.006316  -0.006613  -0.001075  -0.001441
     2  S    0.315580  -0.086591   0.003747   0.005719  -0.000138  -0.000243
     3  P    0.000021  -0.001060  -0.000002   0.000011   0.000000   0.000002
     4  C    0.000000   0.000003   0.000000   0.000000   0.000000   0.000000
     5  C    0.000001   0.000002   0.000000   0.000000   0.000000   0.000000
     6  H   -0.000001  -0.000003   0.000000   0.000000   0.000000   0.000000
     7  H    0.000000   0.000000   0.000000   0.000000   0.000000   0.000000
     8  H    0.000000   0.000000   0.000000   0.000000   0.000000   0.000000
     9  H   -0.000006  -0.000021   0.000000   0.000000   0.000000   0.000000
    10  H    0.000000   0.000000   0.000000   0.000000   0.000000   0.000000
    11  C    0.000000   0.000000   0.000000   0.000000   0.000000   0.000000
    12  C    0.000000   0.000000   0.000000   0.000000   0.000000   0.000000
    13  H    0.000000   0.000000   0.000000   0.000000   0.000000   0.000000
    14  H    0.000000   0.000000   0.000000   0.000000   0.000000   0.000000
    15  H    0.000000   0.000000   0.000000   0.000000   0.000000   0.000000
    16  H    0.000000   0.000000   0.000000   0.000000   0.000000   0.000000
    17  H    0.000000   0.000000   0.000000   0.000000   0.000000   0.000000
    18  C    0.000000   0.000003   0.000000   0.000000   0.000000   0.000000
    19  C    0.000000   0.000000   0.000000   0.000000   0.000000   0.000000
    20  H   -0.000001  -0.000006   0.000000   0.000000   0.000000   0.000000
    21  H    0.000000   0.000000   0.000000   0.000000   0.000000   0.000000
    22  H    0.000000   0.000000   0.000000   0.000000   0.000000   0.000000
    23  H    0.000000   0.000000   0.000000   0.000000   0.000000   0.000000
    24  H    0.000000   0.000000   0.000000   0.000000   0.000000   0.000000
    25  C    4.776797   0.483601  -0.075759  -0.067788   0.006030   0.004303
    26  N    0.483601   6.816512  -0.073494   0.389310   0.010653  -0.070478
    27  C   -0.075759  -0.073494   4.787520   0.455272   0.486939  -0.058752
    28  C   -0.067788   0.389310   0.455272   4.662743  -0.041296   0.519349
    29  C    0.006030   0.010653   0.486939  -0.041296   5.039855  -0.044520
    30  C    0.004303  -0.070478  -0.058752   0.519349  -0.044520   5.010683
    31  C    0.000005  -0.000030   0.002234  -0.038722   0.526810  -0.026380
    32  H   -0.000204  -0.000147  -0.038412   0.004025   0.348701   0.000462
    33  C   -0.000038   0.004129  -0.041590  -0.006618  -0.032937   0.527930
    34  H   -0.000139  -0.001414   0.006636  -0.035503   0.000345   0.345673
    35  H    0.000003   0.000003   0.002809   0.000996  -0.040806   0.004322
    36  H    0.000003  -0.000093   0.000835   0.002986   0.004863  -0.040846
    37  N    0.329425  -0.084621   0.248196  -0.049847  -0.085989   0.010630
    38  H   -0.030081   0.004774  -0.028647   0.008203  -0.002461  -0.000110
              31         32         33         34         35         36
     1  Au   0.000024   0.000123  -0.000248   0.001821   0.000002  -0.000011
     2  S    0.000003  -0.000001   0.000008  -0.000023   0.000000   0.000000
     3  P    0.000000   0.000000   0.000000  -0.000002   0.000000   0.000000
     4  C    0.000000   0.000000   0.000000   0.000000   0.000000   0.000000
     5  C    0.000000   0.000000   0.000000   0.000000   0.000000   0.000000
     6  H    0.000000   0.000000   0.000000   0.000000   0.000000   0.000000
     7  H    0.000000   0.000000   0.000000   0.000000   0.000000   0.000000
     8  H    0.000000   0.000000   0.000000   0.000000   0.000000   0.000000
     9  H    0.000000   0.000000   0.000000   0.000000   0.000000   0.000000
    10  H    0.000000   0.000000   0.000000   0.000000   0.000000   0.000000
    11  C    0.000000   0.000000   0.000000   0.000000   0.000000   0.000000
    12  C    0.000000   0.000000   0.000000   0.000000   0.000000   0.000000
    13  H    0.000000   0.000000   0.000000   0.000000   0.000000   0.000000
    14  H    0.000000   0.000000   0.000000   0.000000   0.000000   0.000000
    15  H    0.000000   0.000000   0.000000   0.000000   0.000000   0.000000
    16  H    0.000000   0.000000   0.000000   0.000000   0.000000   0.000000
    17  H    0.000000   0.000000   0.000000   0.000000   0.000000   0.000000
    18  C    0.000000   0.000000   0.000000   0.000000   0.000000   0.000000
    19  C    0.000000   0.000000   0.000000   0.000000   0.000000   0.000000
    20  H    0.000000   0.000000   0.000000   0.000000   0.000000   0.000000
    21  H    0.000000   0.000000   0.000000   0.000000   0.000000   0.000000
    22  H    0.000000   0.000000   0.000000   0.000000   0.000000   0.000000
    23  H    0.000000   0.000000   0.000000   0.000000   0.000000   0.000000
    24  H    0.000000   0.000000   0.000000   0.000000   0.000000   0.000000
    25  C    0.000005  -0.000204  -0.000038  -0.000139   0.000003   0.000003
    26  N   -0.000030  -0.000147   0.004129  -0.001414   0.000003  -0.000093
    27  C    0.002234  -0.038412  -0.041590   0.006636   0.002809   0.000835
    28  C   -0.038722   0.004025  -0.006618  -0.035503   0.000996   0.002986
    29  C    0.526810   0.348701  -0.032937   0.000345  -0.040806   0.004863
    30  C   -0.026380   0.000462   0.527930   0.345673   0.004322  -0.040846
    31  C    4.866585  -0.041272   0.538312   0.004677   0.357627  -0.042310
    32  H   -0.041272   0.614373   0.004299   0.000018  -0.005557  -0.000179
    33  C    0.538312   0.004299   4.878539  -0.047901  -0.040255   0.358918
    34  H    0.004677   0.000018  -0.047901   0.609252  -0.000164  -0.005986
    35  H    0.357627  -0.005557  -0.040255  -0.000164   0.613279  -0.005976
    36  H   -0.042310  -0.000179   0.358918  -0.005986  -0.005976   0.615975
    37  N    0.004872  -0.005714   0.000254  -0.000123  -0.000119   0.000004
    38  H   -0.000070   0.002036  -0.000002   0.000003  -0.000003   0.000000
              37         38
     1  Au   0.008603  -0.000765
     2  S   -0.068293   0.004087
     3  P   -0.000006   0.000001
     4  C    0.000000   0.000000
     5  C    0.000000   0.000000
     6  H    0.000000   0.000000
     7  H    0.000000   0.000000
     8  H    0.000000   0.000000
     9  H    0.000000   0.000000
    10  H    0.000000   0.000000
    11  C    0.000000   0.000000
    12  C    0.000000   0.000000
    13  H    0.000000   0.000000
    14  H    0.000000   0.000000
    15  H    0.000000   0.000000
    16  H    0.000000   0.000000
    17  H    0.000000   0.000000
    18  C    0.000000   0.000000
    19  C    0.000000   0.000000
    20  H    0.000000   0.000000
    21  H    0.000000   0.000000
    22  H    0.000000   0.000000
    23  H    0.000000   0.000000
    24  H    0.000000   0.000000
    25  C    0.329425  -0.030081
    26  N   -0.084621   0.004774
    27  C    0.248196  -0.028647
    28  C   -0.049847   0.008203
    29  C   -0.085989  -0.002461
    30  C    0.010630  -0.000110
    31  C    0.004872  -0.000070
    32  H   -0.005714   0.002036
    33  C    0.000254  -0.000002
    34  H   -0.000123   0.000003
    35  H   -0.000119  -0.000003
    36  H    0.000004   0.000000
    37  N    7.037593   0.315418
    38  H    0.315418   0.392557
 Mulliken charges:
               1
     1  Au  -0.051615
     2  S   -0.177303
     3  P    0.448340
     4  C   -0.445667
     5  C   -0.470550
     6  H    0.193026
     7  H    0.169594
     8  H    0.163148
     9  H    0.213517
    10  H    0.156277
    11  C   -0.442555
    12  C   -0.472534
    13  H    0.193806
    14  H    0.169904
    15  H    0.163474
    16  H    0.207344
    17  H    0.157815
    18  C   -0.453938
    19  C   -0.457798
    20  H    0.201507
    21  H    0.197311
    22  H    0.168624
    23  H    0.159862
    24  H    0.158166
    25  C    0.292242
    26  N   -0.445915
    27  C    0.316152
    28  C    0.197776
    29  C   -0.174973
    30  C   -0.180585
    31  C   -0.152364
    32  H    0.117447
    33  C   -0.142800
    34  H    0.122832
    35  H    0.113838
    36  H    0.111817
    37  N   -0.660283
    38  H    0.335062
 Sum of Mulliken charges =   0.00000
 Mulliken charges with hydrogens summed into heavy atoms:
               1
     1  Au  -0.051615
     2  S   -0.177303
     3  P    0.448340
     4  C   -0.083046
     5  C    0.062391
    11  C   -0.078845
    12  C    0.056099
    18  C   -0.055120
    19  C    0.028854
    25  C    0.292242
    26  N   -0.445915
    27  C    0.316152
    28  C    0.197776
    29  C   -0.057525
    30  C   -0.057754
    31  C   -0.038526
    33  C   -0.030983
    37  N   -0.325222
 Electronic spatial extent (au):  <R**2>=           9617.2743
 Charge=              0.0000 electrons
 Dipole moment (field-independent basis, Debye):
    X=              7.7056    Y=              2.1568    Z=              0.2051  Tot=              8.0044
 Quadrupole moment (field-independent basis, Debye-Ang):
   XX=           -115.7523   YY=           -134.7475   ZZ=           -140.5600
   XY=             13.2933   XZ=             -0.9155   YZ=             -0.1672
 Traceless Quadrupole moment (field-independent basis, Debye-Ang):
   XX=             14.6010   YY=             -4.3942   ZZ=            -10.2067
   XY=             13.2933   XZ=             -0.9155   YZ=             -0.1672
 Octapole moment (field-independent basis, Debye-Ang**2):
  XXX=            172.0846  YYY=            -57.5051  ZZZ=              4.2728  XYY=             32.0619
  XXY=            -58.2025  XXZ=             -0.4095  XZZ=             72.5824  YZZ=            -18.0944
  YYZ=              0.0091  XYZ=             -0.1255
 Hexadecapole moment (field-independent basis, Debye-Ang**3):
 XXXX=          -9957.7645 YYYY=          -1807.1746 ZZZZ=           -850.0762 XXXY=            160.1923
 XXXZ=            -14.4239 YYYX=             -8.3145 YYYZ=             -4.2741 ZZZX=            -11.1777
[...]
 ,-0.00000212,-0.00001250,-0.00000550,-0.00000491,0.00000901,0.00000206
 ,-0.00000201,0.00000360,0.00000596,0.00000547,-0.00000489,0.00000038,0
 .00000033,0.00000366,0.00000221,0.00000069,0.00000131,0.00010081,0.000
 07662,0.00001516,0.00098662,-0.00149642,0.00015040,-0.00054399,0.00211
 966,-0.00022690,0.01084585,0.00851526,-0.00000370,-0.00024585,0.000782
 36,-0.00002134,-0.17494461,-0.13773385,-0.00069789,-0.00451202,0.00301
 491,-0.00038104,0.00008256,-0.00014922,0.00004335,-0.01397129,-0.02593
 618,0.00015770,0.18155717,-0.00004403,-0.00006913,0.00000384,0.0001589
 5,-0.00000291,0.00000599,-0.00002164,-0.00009498,-0.00000234,0.0000438
 1,-0.00000422,-0.00000355,-0.00000497,0.00001455,0.00000224,0.00001239
 ,0.00002395,-0.00000129,-0.00001156,0.00001512,0.00000914,0.00000860,0
 .00000179,0.00000603,0.00000813,-0.00002056,0.00000089,-0.00001124,0.0
 0000347,-0.00000424,0.00001329,0.00002447,0.00000215,-0.00000760,-0.00
 000373,-0.00000436,-0.00000371,0.00000080,-0.00000169,0.00000712,-0.00
 000239,0.00000218,-0.00000195,0.00000419,0.00000136,0.00000081,0.00000
 345,0.00000059,0.00000233,-0.00000008,-0.00000028,0.00004275,0.0000099
 2,0.00001485,-0.00000742,0.00001108,-0.00001628,0.00000623,0.00000944,
 -0.00001138,-0.00000552,-0.00000109,0.00000550,0.00000749,0.00000269,-
 0.00000065,0.00000381,0.00000102,0.00000200,-0.00000821,-0.00000077,0.
 00000007,-0.00046629,-0.00035818,-0.00001614,-0.00005639,0.00298365,-0
 .00014259,0.00319763,-0.00297060,0.00029015,-0.02313671,-0.01829867,-0
 .00012340,0.00104818,-0.00056751,0.00003871,-0.13762855,-0.22567261,0.
 00059959,0.00173608,0.00119137,0.00018033,-0.00018982,0.00002387,-0.00
 003726,0.00475806,0.00818805,-0.00001799,0.15099520,0.23589686,0.00000
 035,0.00000085,-0.00000336,-0.00000575,0.00000204,0.00014723,-0.000003
 94,0.00000811,0.00005798,-0.00000785,0.00000837,-0.00001073,-0.0000060
 3,-0.00001731,0.00000383,-0.00001102,-0.00000626,0.00001572,0.00000755
 ,-0.00000283,-0.00000371,-0.00001012,-0.00000427,-0.00001258,-0.000004
 75,0.00001978,0.00000322,0.00001054,-0.00000105,-0.00000204,-0.0000005
 0,-0.00000517,-0.00002003,0.00000314,-0.00000256,0.00000483,-0.0000043
 8,0.00000506,-0.00000081,-0.00000073,-0.00000025,0.00000299,0.00000075
 ,-0.00000086,-0.00000154,-0.00000018,0.00000103,0.00000022,0.00000128,
 0.00000015,-0.00000303,0.00001715,-0.00001288,-0.00000935,-0.00000672,
 0.00000898,-0.00000390,0.00000526,0.00000779,0.00000846,0.00000552,-0.
 00000044,-0.00000360,0.00000716,0.00000277,-0.00000479,-0.00000006,-0.
 00000488,0.00000111,-0.00000526,-0.00000061,-0.00000014,0.00002723,-0.
 00000261,-0.00048001,0.00011958,-0.00018328,-0.00356214,-0.00024995,0.
 00025251,0.00622900,0.00070233,0.00072467,0.00393459,-0.00002861,0.000
 03404,-0.00009023,-0.00069602,0.00060209,-0.03416560,-0.00035188,0.000
 21554,0.00714910,0.00004451,-0.00003566,-0.00140854,-0.00053703,-0.000
 84316,0.00168177,0.00085291,-0.00069521,0.02416487,0.00005843,0.000022
 59,0.00000414,-0.00018029,0.00004274,0.00000025,0.00009973,0.00006214,
 -0.00000240,-0.00002475,-0.00001274,0.00000893,0.00000667,0.00000078,0
 .00000329,0.00000452,0.00000863,0.00000017,-0.00000542,-0.00001021,-0.
 00000966,0.,-0.00000498,-0.00000335,-0.00000222,-0.00000176,0.00000786
 ,-0.00000398,0.00000352,0.00000035,-0.00001571,-0.00002706,0.00000615,
 -0.00000038,0.00000237,-0.00000821,0.00000384,0.00000089,0.00000179,-0
 .00001591,0.00000528,-0.00000088,-0.00000725,0.00000322,0.00000078,0.0
 0000375,-0.00000746,-0.00000085,0.00000185,-0.00000193,0.00000185,-0.0
 0002521,-0.00001779,-0.00001228,0.00000846,0.00000008,0.00001449,0.000
 00103,0.00000527,-0.00000531,0.00000069,0.00000112,-0.00000308,-0.0000
 0504,-0.00000695,0.00000441,0.00000028,-0.00000027,-0.00000267,-0.0000
 0398,0.00000128,-0.00000236,0.00038888,0.00018810,0.00001351,-0.000168
 06,0.00005636,-0.00000309,0.00145145,0.00157159,-0.00016667,0.00068064
 ,-0.00046557,0.00005195,-0.00650308,-0.00041772,-0.00019286,-0.0003250
 3,-0.00391136,-0.00008308,-0.32905646,0.05062976,-0.00918293,0.0008401
 0,0.00034119,0.00012433,-0.01608512,0.00657570,-0.00060461,-0.00090119
 ,0.00032559,-0.00004619,0.34950232,-0.00001356,-0.00004978,-0.00000112
 ,0.00021095,0.00005625,-0.00000112,-0.00005044,-0.00003456,-0.00000001
 ,0.00002220,0.00000559,-0.00000481,-0.00000403,0.00000263,-0.00000099,
 -0.00000016,-0.00000012,-0.00000045,0.00000022,0.00000784,0.00000685,0
 .00000175,0.00000224,0.00000286,0.00000223,-0.00000270,-0.00000337,-0.
 00000030,-0.00000063,-0.00000101,0.00000845,0.00001559,-0.00000197,-0.
 00000145,-0.00000189,0.00000267,-0.00000218,-0.00000048,-0.00000095,0.
 00000790,-0.00000277,0.00000086,0.00000274,-0.00000060,-0.00000009,-0.
 00000138,0.00000332,0.00000038,-0.00000044,0.00000073,-0.00000085,0.00
 002089,0.00001064,0.00000886,-0.00000527,0.00000194,-0.00001043,-0.000
 00003,-0.00000146,0.00000023,-0.00000128,-0.00000058,0.00000220,0.0000
 0400,0.00000363,-0.00000206,0.00000091,0.00000031,0.00000175,0.0000001
 2,-0.00000040,0.00000106,-0.00037946,-0.00072796,-0.00000073,-0.000022
 42,0.00055182,-0.00001463,0.00065424,-0.00562176,0.00028132,0.00000430
 ,-0.00134249,0.00001025,0.03088221,-0.00157132,0.00088689,-0.00248970,
 -0.00369132,0.00014772,0.05017919,-0.06897910,0.00220523,-0.00046706,0
 .00122252,-0.00012834,-0.02516041,0.00869441,-0.00085548,-0.00128700,0
 .00028258,-0.00002904,-0.05456915,0.06948212,0.00000413,-0.00000228,-0
 .00008409,-0.00000584,-0.00000082,-0.00020745,0.00000244,0.00000569,0.
 00003628,0.00000506,0.00000436,-0.00000214,0.00000008,-0.00000227,-0.0
 0000062,-0.00000074,-0.00000014,0.00000095,0.00000074,0.00000159,0.000
 00088,-0.00000143,-0.00000161,-0.00000176,-0.00000096,0.00000191,0.000
 00150,0.00000084,0.00000022,0.,-0.00000014,-0.00000153,-0.00000358,0.0
 0000077,-0.00000121,0.00000091,-0.00000060,0.00000112,-0.00000027,-0.0
 0000044,0.00000002,0.00000044,0.00000002,0.00000011,-0.00000014,0.0000
 0020,0.00000017,-0.00000001,0.00000030,0.00000016,-0.00000071,-0.00000
 680,-0.00000718,-0.00000331,0.00000008,-0.00000026,0.00000302,0.000000
 22,0.00000153,0.00000079,0.00000112,0.,-0.00000123,-0.00000003,-0.0000
 0020,-0.00000056,-0.00000003,-0.00000101,-0.00000021,-0.00000076,0.000
 00016,0.00000005,0.00002990,0.00001419,-0.00028227,-0.00000272,-0.0000
 1301,-0.00010134,-0.00014487,0.00030617,0.00631679,0.00004614,0.000000
 20,-0.00089604,-0.00089871,0.00004537,0.00099482,-0.00011007,0.0001068
 8,0.00593347,-0.00916707,0.00221372,-0.03128434,0.00014310,-0.00010662
 ,-0.00402253,0.00010072,0.00000076,0.00083363,-0.00001061,0.00001477,0
 .00053993,0.01001245,-0.00248434,0.02425693,0.00008015,0.00000102,0.00
 000180,-0.00012620,0.00021857,-0.00000263,0.00008484,0.00008917,-0.000
 00057,-0.00003028,-0.00001106,0.00000733,0.00000772,-0.00000092,0.0000
 0260,0.00000347,0.00000405,0.00000150,-0.00000340,-0.00001054,-0.00001
 005,-0.00000383,-0.00000429,-0.00000630,-0.00000360,0.00000332,0.00000
 716,0.00000063,-0.00000009,0.00000147,-0.00001656,-0.00002970,0.000003
 72,0.00000298,0.00000339,-0.00000424,0.00000437,0.00000061,0.00000198,
 -0.00001490,0.00000486,-0.00000178,-0.00000392,0.00000063,-0.00000008,
 0.00000206,-0.00000602,-0.00000092,0.00000056,-0.00000105,0.00000181,-
 0.00002919,-0.00001803,-0.00001343,0.00000847,-0.00000059,0.00001665,0
 .00000196,0.00000502,-0.00000157,0.00000148,0.00000063,-0.00000465,-0.
 00000766,-0.00000564,0.00000501,-0.00000247,-0.00000080,-0.00000480,0.
 00000020,-0.00000085,-0.00000162,-0.00046905,-0.00020665,0.00000763,0.
 00016726,0.00179491,-0.00006495,-0.00116598,-0.00031449,-0.00001541,-0
 .00572760,-0.00122647,-0.00031973,-0.00239941,-0.00289631,-0.00015258,
 -0.00682509,0.03146424,-0.00091619,0.01092493,-0.02061570,0.00073626,0
 .00041685,-0.00109868,0.00001770,-0.09446618,0.09203344,-0.00372605,0.
 00120054,-0.00049788,0.00016209,0.00095705,0.00049323,0.00010835,0.097
 10281,-0.00007352,-0.00001659,-0.00000191,0.00017442,-0.00010524,0.000
 00251,-0.00010276,-0.00008557,0.00000127,0.00003128,0.00001347,-0.0000
 0917,-0.00000809,0.00000011,-0.00000349,-0.00000420,-0.00000620,-0.000
 00104,0.00000472,0.00001188,0.00001109,0.00000245,0.00000541,0.0000055
 9,0.00000355,-0.00000169,-0.00000814,0.00000126,-0.00000186,-0.0000010
 2,0.00001784,0.00003157,-0.00000529,-0.00000199,-0.00000343,0.00000664
 ,-0.00000470,-0.00000094,-0.00000215,0.00001709,-0.00000535,0.00000159
 ,0.00000589,-0.00000210,-0.00000025,-0.00000280,0.00000722,0.00000086,
 -0.00000138,0.00000160,-0.00000210,0.00003121,0.00002031,0.00001439,-0
 .00000961,0.00000051,-0.00001758,-0.00000148,-0.00000530,0.00000372,-0
 .00000120,-0.00000114,0.00000459,0.00000730,0.00000710,-0.00000537,0.0
 0000121,0.00000065,0.00000424,0.00000185,-0.00000034,0.00000217,0.0000
 4472,0.00036190,-0.00001926,0.00013784,-0.00049036,0.00003959,-0.00066
 840,0.00062281,-0.00003970,0.00028483,0.00184292,0.00012738,-0.0043093
 7,-0.00154749,0.00004524,-0.00020295,-0.00121196,0.00004887,0.01136836
 ,-0.01887959,0.00074271,0.00054687,-0.00109336,0.00005320,0.09198373,-
 0.30275769,0.00852016,0.00036895,0.00086386,-0.00010419,-0.00032512,0.
 00098641,-0.00010910,-0.09933216,0.32144354,0.00000404,0.00000066,0.00
 002646,-0.00000135,0.00000336,-0.00018439,0.00000361,0.00000603,0.0000
 0644,-0.00000406,-0.00000088,-0.00000150,-0.00000129,-0.00000365,0.000
 00225,-0.00000131,-0.00000046,0.00000273,0.00000119,-0.00000130,-0.000
 00211,-0.00000264,-0.00000201,-0.00000366,-0.00000071,0.00000399,0.000
 00226,0.00000188,-0.00000009,-0.00000055,-0.00000153,-0.00000318,-0.00
 000409,0.00000084,-0.00000017,0.00000122,-0.00000079,0.00000133,-0.000
 00036,-0.00000119,0.00000014,0.00000093,-0.00000021,-0.00000019,-0.000
 00031,0.00000010,-0.00000034,0.00000041,0.00000049,0.00000030,-0.00000
 098,0.00000377,-0.00000172,-0.00000299,-0.00000149,0.00000189,-0.00000
 055,0.00000032,0.00000220,0.00000257,0.00000222,-0.00000054,-0.0000010
 1,0.00000201,0.00000111,-0.00000142,-0.00000012,-0.00000149,-0.0000000
 7,-0.00000121,0.00000007,-0.00000006,-0.00000131,-0.00002474,-0.000597
 40,-0.00002751,0.00008487,0.00111233,-0.00000965,-0.00003217,-0.000333
 78,-0.00035128,0.00007893,0.00710819,-0.00011780,0.00007948,0.00560498
 ,-0.00021564,0.00090851,0.00114317,0.00002278,-0.00011786,0.00073169,-
 0.00001859,0.00000970,0.00065062,-0.00371833,0.00852394,-0.03201692,0.
 00013430,-0.00012668,-0.00419022,0.00013066,-0.00008738,-0.00351490,0.
 00415237,-0.00930092,0.02469655,-0.00014960,0.00160345,-0.00010095,-0.
 02960497,-0.00050718,-0.00081946,0.00165100,0.00054342,0.00003782,-0.0
 0059008,-0.00019661,0.00018282,0.00010024,-0.00003400,0.00005033,0.000
 04419,0.00009396,0.00001439,-0.00003900,-0.00020203,-0.00020944,-0.000
 03209,-0.00006510,-0.00007827,-0.00004436,0.00002173,0.00012865,-0.000
 02845,0.00003084,0.00000749,-0.00021795,-0.00041345,0.00007399,-0.0000
 0012,0.00004273,-0.00010128,0.00004572,0.00001923,0.00002188,-0.000224
 42,0.00008499,-0.00001891,-0.00009007,0.00003138,0.00001343,0.00005119
 ,-0.00009783,-0.00001347,0.00001676,-0.00002590,0.00002433,-0.00056119
 ,-0.00031521,-0.00026950,0.00015178,-0.00001877,0.00030030,0.00001584,
 0.00007273,-0.00006549,0.00001097,0.00002162,-0.00004295,-0.00011117,-
 0.00011207,0.00006309,-0.00000972,-0.00000278,-0.00004867,-0.00003235,
 0.00000952,-0.00003195,-0.26005981,-0.04177565,-0.00429939,-0.02395467
 ,-0.06648557,0.00023462,-0.17192874,0.07637713,-0.00506516,-0.00502151
 ,0.01534764,-0.00071345,-0.01651828,0.04130782,-0.00127878,0.00123840,
 -0.00924405,0.00018138,-0.00020251,-0.00364913,-0.00007171,0.00329817,
 -0.00092350,0.00018205,-0.00580084,0.00519497,-0.00024935,0.00045400,-
 0.00072484,0.00002705,-0.00065143,0.00193234,-0.00010097,0.00036171,0.
 00004995,0.00001829,0.61773309,0.00166068,-0.00397327,0.00019409,0.022
 30390,0.01026980,0.00036944,-0.00082416,0.00037518,-0.00005777,0.00065
 463,0.00016324,-0.00015011,-0.00003572,0.00008814,-0.00003766,0.000016
 39,0.00004352,-0.00002381,-0.00002391,0.00020648,0.00020685,0.00003315
 ,0.00002629,0.00006617,0.00005519,-0.00008550,-0.00001859,-0.00003979,
 -0.00000887,-0.00001443,0.00008677,0.00022346,-0.00001487,-0.00005681,
 -0.00005487,0.00002586,-0.00002769,-0.00002297,-0.00000851,0.00011334,
 -0.00003987,0.00002980,0.00003019,-0.00000589,-0.00000336,-0.00000458,
 0.00004453,0.00000097,-0.00000159,0.00001222,-0.00001334,0.00056411,0.
 00024782,0.00022411,-0.00011657,0.00005099,-0.00027805,0.00001496,0.00
 001584,0.00000280,-0.00000761,-0.00001440,0.00002125,0.00009927,0.0000
 7709,-0.00003917,0.00001345,0.00000013,0.00003910,-0.00001383,-0.00000
 818,0.00001618,-0.04299831,-0.12597396,0.00030204,-0.02593050,-0.06154
 704,0.00109186,0.07006387,-0.24586805,0.00612382,-0.02162878,-0.070788
 94,0.00113362,0.01964058,-0.00376732,0.00058745,0.00057140,-0.00404280
 ,0.00015000,-0.00338694,0.01141017,-0.00022717,0.00003699,0.00113237,-
 0.00007819,-0.00595196,-0.00612006,-0.00004064,0.00058057,-0.00125559,
 0.00004247,-0.00003445,0.00065936,0.00001236,0.00013748,-0.00003216,-0
 .00000109,0.09534075,0.92278608,-0.00002508,0.00013172,0.00085591,-0.0
 0128988,-0.00017006,0.00400532,0.00005989,-0.00000706,-0.00026599,-0.0
 0005857,-0.00001393,0.00002560,0.00000102,0.00000233,0.00000984,0.0000
 0136,-0.00000072,0.00000340,0.00000063,-0.00001489,-0.00001137,0.00000
 324,0.00000151,0.00000129,-0.00000427,0.00000791,-0.00000892,0.0000073
 3,0.00000581,0.00000314,-0.00001736,-0.00002109,0.00001025,-0.00000170
 ,-0.00000095,-0.00000946,0.00001546,-0.00000324,0.00000396,-0.00001047
 ,0.00000575,0.00000145,-0.00000019,0.00000188,0.00000282,0.00000101,0.
 00000155,-0.00000866,-0.00000791,-0.00000339,0.00000641,0.00001488,0.0
 0000898,0.00001011,-0.00000446,0.00000110,0.00000290,0.00000020,-0.000
 00094,-0.00000450,-0.00001066,-0.00000794,0.00001064,-0.00000313,-0.00
 000585,0.00000655,0.00000168,0.00000576,-0.00000049,0.00000114,-0.0000
 0115,-0.00000216,-0.00444402,0.00031168,-0.05438623,-0.00070020,0.0000
 3348,0.02064736,-0.00478953,0.00615224,-0.04544287,0.00013420,0.002091
 02,0.01001050,-0.00088796,0.00118968,-0.00083820,-0.00006507,-0.000088
 69,0.00209326,-0.00008630,-0.00026587,0.00542004,0.00016186,-0.0001125
 2,-0.00291806,0.00003113,0.00026587,-0.00073833,0.00000248,0.00000427,
 -0.00011363,-0.00005421,0.00006759,0.00138965,0.00001427,-0.00000427,-
 0.00026330,0.01270553,-0.01498065,0.06065092,-0.00034927,-0.00040147,0
 .00003455,0.00052819,0.00072256,-0.00000662,-0.00009044,-0.00011165,-0
 .00001742,0.00014604,0.00004044,-0.00003731,-0.00001508,0.00002171,-0.
 00000923,0.00000024,0.00000797,-0.00000192,-0.00000422,0.00005266,0.00
 004832,0.00000803,0.00001239,0.00001684,0.00001842,-0.00001783,-0.0000
 1056,-0.00000487,-0.00000723,-0.00000508,0.00006900,0.00012844,-0.0000
 1217,-0.00001145,-0.00000590,0.00001696,-0.00000993,-0.00000419,-0.000
 00163,0.00005830,-0.00002808,0.00001133,0.00001419,-0.00000616,-0.0000
 0205,-0.00000554,0.00001396,-0.00000199,-0.00000384,0.00000316,-0.0000
 0472,0.00014361,0.00007195,0.00006401,-0.00003609,0.00001465,-0.000073
 18,0.00000111,0.00000258,0.00000054,-0.00000454,-0.00000676,0.00001043
 ,0.00002571,0.00002430,-0.00001207,0.00000301,0.00000075,0.00001004,0.
 00000043,-0.00000427,0.00000693,0.00554715,-0.02949073,0.00091177,-0.0
 0698072,-0.00476966,-0.00023671,0.01607573,0.01727557,0.00029116,-0.00
 526129,0.00540352,-0.00032318,0.00113640,-0.00064637,0.00006551,0.0016
 1605,0.00014475,0.00000661,-0.00013113,0.00005990,-0.00000406,-0.00089
 552,-0.00043199,-0.00001108,-0.00020799,-0.00001011,0.00000297,-0.0001
 3252,0.00045185,-0.00001744,-0.00002916,0.00002786,-0.00000386,-0.0000
 3472,-0.00003561,-0.00000085,-0.10929972,-0.11093447,-0.00069634,0.098
 11645,0.00009350,-0.00028606,-0.00000654,0.00065624,0.00010561,0.00000
 616,-0.00022189,-0.00001922,0.00000177,0.00003750,0.00001163,-0.000007
 09,-0.00001176,0.00000095,-0.00000168,-0.00000328,-0.00001000,-0.00000
 042,0.00000567,0.00001179,0.00001002,0.00000032,0.00000396,0.00000199,
 0.00000134,0.00000187,-0.00001038,0.00000650,-0.00000305,-0.00000019,-
 0.00000444,-0.00000269,-0.00000450,0.00000525,-0.00000450,0.00000730,-
 0.00000192,0.00000079,-0.00000251,0.00000458,0.00000033,-0.00000249,0.
 00001043,-0.00000211,-0.00000115,-0.00000625,0.00001111,0.00000165,-0.
 00000181,0.00000203,-0.00000023,0.00003465,0.00001918,0.00001160,-0.00
 000854,0.00000102,-0.00001363,-0.00000089,-0.00000972,0.00000535,-0.00
 000463,0.00000043,0.00000282,0.00000494,0.00000634,-0.00000296,0.00000
 011,0.00000021,0.00000178,0.00000531,-0.00000100,0.00000192,-0.0007097
 2,-0.00153679,-0.00015850,0.00080086,0.00262675,0.00009514,-0.01162246
 ,-0.01206680,-0.00021851,0.00310874,-0.00331284,0.00020182,-0.00079776
 ,0.00183327,-0.00007560,-0.00164234,-0.00025771,-0.00001339,-0.0001246
 8,-0.00088440,0.00001684,0.00055645,-0.00012246,0.00001092,0.00046758,
 0.00055487,-0.00000660,0.00027374,-0.00023317,0.00001628,-0.00003371,0
 .00004000,0.00000012,0.00002335,0.00002707,0.00000033,-0.11333253,-0.4
 2422296,0.00541308,0.12243153,0.43771627,0.00000122,-0.00002178,-0.000
 65076,0.00000302,0.00000750,-0.00064103,-0.00000123,0.00001650,0.00024
 951,0.00004356,0.00003356,-0.00001510,-0.00000865,-0.00002202,-0.00001
 019,-0.00000570,-0.00000303,0.00000295,0.00000494,0.00001284,0.0000051
 2,-0.00000536,-0.00000534,-0.00000718,-0.00000477,0.00000604,0.0000097
 7,0.00000281,0.00000152,0.00000080,0.00000590,0.00000337,-0.00002251,0
 .00000594,-0.00000608,0.00000598,-0.00000709,0.00000503,-0.00000342,0.
 00000349,-0.00000297,0.00000066,0.00000045,-0.00000080,-0.00000133,0.0
 0000100,0.00000125,0.00000483,0.00000307,0.00000341,-0.00000563,-0.000
 03573,-0.00003926,-0.00001440,0.00000007,-0.00000061,0.00000977,0.0000
 0291,0.00001208,0.00000435,0.00001013,0.00000064,-0.00000780,-0.000000
 09,0.00000081,-0.00000281,-0.00000132,-0.00000656,-0.00000111,-0.00000
 371,-0.00000002,0.00000164,0.00038474,-0.00085998,-0.00842802,-0.00034
 477,-0.00005377,0.00620023,0.00085991,0.00060731,-0.00715388,-0.000285
 02,0.00027192,0.00243671,0.00007698,-0.00007753,-0.00081448,0.00004992
 ,0.00003640,0.00119115,0.00000095,0.00002319,-0.00010215,-0.00003309,-
 0.00001057,-0.00009022,-0.00000966,-0.00002201,-0.00029666,-0.00001330
 ,0.00002069,0.00014510,-0.00000267,0.00000245,0.00009749,-0.00000212,-
 0.00000086,0.00002777,-0.00068828,0.00534715,-0.00015914,-0.00000847,-
 0.00528053,0.00803404\\0.00003418,0.00003075,0.00000821,-0.00001934,-0
 .00000260,0.00000719,-0.00001913,-0.00000744,-0.00000386,-0.00000233,-
 0.00000163,-0.00000871,-0.00000120,0.00000968,0.00000103,-0.00000421,0
 .00000483,-0.00000567,-0.00000252,0.00001368,-0.00000196,-0.00000194,0
 .00001208,-0.00000444,-0.00000027,0.00000789,0.00000015,-0.00000010,0.
 00001035,0.00000073,-0.00000336,0.00000915,0.00000214,0.00000337,0.000
 00785,0.00000207,0.00000304,0.00000740,0.00000376,0.00000499,0.0000088
 5,0.00000256,0.00000421,0.00000663,0.00000866,0.00000475,0.00000145,0.
 00000549,0.00000318,0.00000294,0.00000391,-0.00000254,-0.00000431,0.00
 000307,-0.00000180,0.00000426,-0.00000896,-0.00000272,-0.00000029,-0.0
 0000409,-0.00000063,-0.00000281,0.00000077,-0.00000505,-0.00000051,-0.
 00000463,-0.00000340,0.00000442,-0.00000371,-0.00000099,0.00000207,-0.
 00000132,0.00000275,-0.00002466,-0.00000594,0.00000846,0.00002249,0.00
 000552,-0.00000496,-0.00001014,0.00000317,0.00001280,-0.00001210,0.000
 00711,0.00000243,-0.00001057,-0.00000319,-0.00000184,-0.00000780,-0.00
 000216,-0.00000126,-0.00001279,-0.00000214,0.00000229,-0.00001163,0.00
 000433,-0.00000065,-0.00000937,-0.00000469,-0.00000391,-0.00000511,-0.
 00000563,-0.00000085,-0.00001291,-0.00000162,-0.00000359,-0.00001016,-
 0.00000651,0.00000166,-0.00001162,-0.00001102,0.00000049,-0.00000833,0
 .00002037\\\@


 EVERY WORD THAT YOU WRITE IS A BLOW THAT SMITES THE DEVIL.
     -- ST. BERNARD OF CLAIRVAUX
 Job cpu time:       0 days  0 hours 46 minutes  1.1 seconds.
 File lengths (MBytes):  RWF=    518 Int=      0 D2E=      0 Chk=     10 Scr=      1
 Normal termination of Gaussian 09 at Tue May  2 07:27:48 2023.
