 Entering Gaussian System, Link 0=g09
 Input=au-1to3-ts-2-af25-c-term-level3-freq-se-new-p.com
 Output=au-1to3-ts-2-af25-c-term-level3-freq-se-new-p.log
 Initial command:
 /home/scr/programs/g09/l1.exe "/home/scr/guest2/Gau-18646.inp" -scrdir="/home/scr/guest2/"
 Entering Link 1 = /home/scr/programs/g09/l1.exe PID=     18647.
  
 Copyright (c) 1988,1990,1992,1993,1995,1998,2003,2009,2013,
            Gaussian, Inc.  All Rights Reserved.
  
 This is part of the Gaussian(R) 09 program.  It is based on
 the Gaussian(R) 03 system (copyright 2003, Gaussian, Inc.),
 the Gaussian(R) 98 system (copyright 1998, Gaussian, Inc.),
 the Gaussian(R) 94 system (copyright 1995, Gaussian, Inc.),
 the Gaussian 92(TM) system (copyright 1992, Gaussian, Inc.),
 the Gaussian 90(TM) system (copyright 1990, Gaussian, Inc.),
 the Gaussian 88(TM) system (copyright 1988, Gaussian, Inc.),
 the Gaussian 86(TM) system (copyright 1986, Carnegie Mellon
 University), and the Gaussian 82(TM) system (copyright 1983,
 Carnegie Mellon University). Gaussian is a federally registered
 trademark of Gaussian, Inc.
  
 This software contains proprietary and confidential information,
 including trade secrets, belonging to Gaussian, Inc.
  
 This software is provided under written license and may be
 used, copied, transmitted, or stored only in accord with that
 written license.
  
 The following legend is applicable only to US Government
 contracts under FAR:
  
                    RESTRICTED RIGHTS LEGEND
  
 Use, reproduction and disclosure by the US Government is
 subject to restrictions as set forth in subparagraphs (a)
 and (c) of the Commercial Computer Software - Restricted
 Rights clause in FAR 52.227-19.
  
 Gaussian, Inc.
 340 Quinnipiac St., Bldg. 40, Wallingford CT 06492
  
  
 ---------------------------------------------------------------
 Warning -- This program may not be used in any manner that
 competes with the business of Gaussian, Inc. or will provide
 assistance to any competitor of Gaussian, Inc.  The licensee
 of this program is prohibited from giving any competitor of
 Gaussian, Inc. access to this program.  By using this program,
 the user acknowledges that Gaussian, Inc. is engaged in the
 business of creating and licensing software in the field of
 computational chemistry and represents and warrants to the
 licensee that it is not a competitor of Gaussian, Inc. and that
 it will not use this program in any manner prohibited above.
 ---------------------------------------------------------------
  

 Cite this work as:
 Gaussian 09, Revision D.01,
 M. J. Frisch, G. W. Trucks, H. B. Schlegel, G. E. Scuseria, 
 M. A. Robb, J. R. Cheeseman, G. Scalmani, V. Barone, B. Mennucci, 
 G. A. Petersson, H. Nakatsuji, M. Caricato, X. Li, H. P. Hratchian, 
 A. F. Izmaylov, J. Bloino, G. Zheng, J. L. Sonnenberg, M. Hada, 
 M. Ehara, K. Toyota, R. Fukuda, J. Hasegawa, M. Ishida, T. Nakajima, 
 Y. Honda, O. Kitao, H. Nakai, T. Vreven, J. A. Montgomery, Jr., 
 J. E. Peralta, F. Ogliaro, M. Bearpark, J. J. Heyd, E. Brothers, 
 K. N. Kudin, V. N. Staroverov, T. Keith, R. Kobayashi, J. Normand, 
 K. Raghavachari, A. Rendell, J. C. Burant, S. S. Iyengar, J. Tomasi, 
 M. Cossi, N. Rega, J. M. Millam, M. Klene, J. E. Knox, J. B. Cross, 
 V. Bakken, C. Adamo, J. Jaramillo, R. Gomperts, R. E. Stratmann, 
 O. Yazyev, A. J. Austin, R. Cammi, C. Pomelli, J. W. Ochterski, 
 R. L. Martin, K. Morokuma, V. G. Zakrzewski, G. A. Voth, 
 P. Salvador, J. J. Dannenberg, S. Dapprich, A. D. Daniels, 
 O. Farkas, J. B. Foresman, J. V. Ortiz, J. Cioslowski, 
 and D. J. Fox, Gaussian, Inc., Wallingford CT, 2013.
 
 ******************************************
 Gaussian 09:  EM64L-G09RevD.01 24-Apr-2013
                 4-May-2023 
 ******************************************
 %mem=30000MB
 %nprocshared=8
 Will use up to    8 processors via shared memory.
 ----------------------------------------
 # opt freq=noraman b3lyp/gen pseudo=read
 ----------------------------------------
 1/14=-1,18=20,19=15,26=3,38=1/1,3;
 2/9=110,12=2,17=6,18=5,40=1/2;
 3/5=7,11=2,16=1,17=8,25=1,30=1,71=1,74=-5/1,2,3;
 4//1;
 5/5=2,38=5/2;
 6/7=2,8=2,9=2,10=2,28=1/1;
 7//1,2,3,16;
 1/14=-1,18=20,19=15,26=3/3(2);
 2/9=110/2;
 99//99;
 2/9=110/2;
 3/5=7,6=1,11=2,16=1,17=8,25=1,30=1,71=1,74=-5,82=7/1,2,3;
 4/5=5,16=3,69=1/1;
 5/5=2,38=5/2;
 7//1,2,3,16;
 1/14=-1,18=20,19=15,26=3/3(-5);
 2/9=110/2;
 6/7=2,8=2,9=2,10=2,19=2,28=1/1;
 99/9=1/99;
 -------------------
 Title Card Required
 -------------------
 Symbolic Z-matrix:
 Charge =  0 Multiplicity = 1
 Au                    1.68403   1.14653  -0.95279 
 P                     3.33793   1.88691   0.70053 
 C                     5.10828   2.01912   0.16936 
 H                     5.66366   2.38539   1.04434 
 H                     5.1277    2.82517  -0.5745 
 C                     3.28327   0.90622   2.26286 
 H                     4.01251   1.34445   2.95237 
 H                     3.62304  -0.10142   1.98557 
 C                     2.90466   3.62861   1.16784 
 H                     1.82587   3.64989   1.35037 
 H                     3.06676   4.23897   0.26899 
 C                     5.74239   0.75068  -0.3923 
 H                     5.73591  -0.06957   0.32981 
 H                     5.21914   0.40508  -1.28623 
 H                     6.78563   0.9549   -0.66581 
 C                     3.66277   4.21801   2.35911 
 H                     3.339     5.24996   2.51597 
 H                     3.46969   3.66437   3.27963 
 H                     4.75361   4.24894   2.19412 
 C                     1.8815    0.82339   2.893 
 H                     1.17731   0.2988    2.24037 
 H                     1.9446    0.24894   3.82741 
 H                     1.46998   1.80162   3.13228 
 S                     2.62352  -0.96652  -1.88919 
 N                    -4.51459  -2.22391   3.77879 
 C                    -3.83392  -1.08916   3.16769 
 C                    -4.63002  -0.54657   1.96072 
 O                    -5.12496  -1.33835   1.15569 
 C                    -2.43561  -1.57834   2.71611 
 O                    -1.5909   -0.55678   2.20842 
 N                    -4.82941   0.80421   1.80618 
 C                    -4.3327    1.90123   2.61683 
 C                    -2.80657   2.05968   2.58911 
 O                    -2.15602   1.8564    3.62687 
 N                    -2.18588   2.39079   1.43072 
 C                    -2.70486   2.59376   0.0973 
 C                    -3.16607   1.35965  -0.70621 
 O                    -4.06915   1.51383  -1.53478 
 C                    -1.62918   3.34615  -0.76987 
 S                     0.24251   3.24228  -0.35782 
 N                    -2.43902   0.22911  -0.5556 
 C                    -2.34725  -0.73978  -1.64349 
 C                    -0.92532  -0.83416  -2.24559 
 C                    -2.73985  -2.13979  -1.1199 
 O                    -1.94131  -2.79899  -0.45125 
 N                    -3.96238  -2.62147  -1.4633 
 C                    -5.09845  -1.84835  -1.93082 
 C                    -6.37161  -2.53908  -1.46849 
 O                    -6.41272  -3.63226  -0.95016 
 O                    -7.45717  -1.8043   -1.74728 
 H                    -1.9773   -2.06921   3.59311 
 H                    -2.53615  -2.3195    1.91974 
 H                    -1.46951   0.11746   2.89828 
 H                    -3.69568  -0.31128   3.92583 
 H                    -4.82422  -2.83711   3.02359 
 H                    -5.37345  -1.91124   4.23777 
 H                    -4.61042   1.78401   3.66014 
 H                    -4.82043   2.82326   2.24168 
 H                    -5.32344   1.0353    0.93944 
 H                    -1.76331   4.44144  -0.56411 
 H                    -1.8266    3.16046  -1.84386 
 H                    -3.58576   3.25475   0.12282 
 H                    -1.16789   2.45059   1.5008 
 H                    -0.96719  -1.45767  -3.15973 
 H                    -0.252    -1.34072  -1.55273 
 H                    -3.04577  -0.39391  -2.40667 
 H                    -1.85669   0.09787   0.28017 
 H                    -5.1418   -1.7812   -3.02826 
 H                    -5.10332  -0.8269   -1.53291 
 H                    -4.21339  -3.49609  -1.01343 
 H                    -8.222    -2.32697  -1.44025 
 Se                   -0.15596   0.94901  -2.66747 
 C                     3.39411  -2.02994  -0.72188 
 C                     4.3604   -3.91066  -0.16921 
 C                     4.25601  -3.05896   0.94249 
 C                     4.9321   -5.16587  -0.11934 
 C                     4.74813  -3.46823   2.18097 
 C                     5.42202  -5.56342   1.12638 
 H                     4.99121  -5.80424  -0.99638 
 C                     5.34085  -4.72976   2.25779 
 H                     4.6761   -2.82336   3.05334 
 H                     5.88859  -6.5475    1.22235 
 H                     5.73127  -5.0817    3.20599 
 N                     3.63181  -1.86979   0.53969 
 O                     3.80461  -3.24448  -1.24637 
 

 GradGradGradGradGradGradGradGradGradGradGradGradGradGradGradGradGradGrad
 Berny optimization.
 Initialization pass.
                           ----------------------------
                           !    Initial Parameters    !
                           ! (Angstroms and Degrees)  !
 --------------------------                            --------------------------
 ! Name  Definition              Value          Derivative Info.                !
 --------------------------------------------------------------------------------
 ! R1    R(1,2)                  2.453          estimate D2E/DX2                !
 ! R2    R(1,24)                 2.4949         estimate D2E/DX2                !
 ! R3    R(1,40)                 2.6123         estimate D2E/DX2                !
 ! R4    R(1,72)                 2.5228         estimate D2E/DX2                !
 ! R5    R(2,3)                  1.853          estimate D2E/DX2                !
 ! R6    R(2,6)                  1.8454         estimate D2E/DX2                !
 ! R7    R(2,9)                  1.8546         estimate D2E/DX2                !
 ! R8    R(3,4)                  1.0992         estimate D2E/DX2                !
 ! R9    R(3,5)                  1.097          estimate D2E/DX2                !
 ! R10   R(3,12)                 1.5253         estimate D2E/DX2                !
 ! R11   R(6,7)                  1.0951         estimate D2E/DX2                !
 ! R12   R(6,8)                  1.0989         estimate D2E/DX2                !
 ! R13   R(6,20)                 1.5391         estimate D2E/DX2                !
 ! R14   R(9,10)                 1.0943         estimate D2E/DX2                !
 ! R15   R(9,11)                 1.0985         estimate D2E/DX2                !
 ! R16   R(9,16)                 1.5301         estimate D2E/DX2                !
 ! R17   R(12,13)                1.0928         estimate D2E/DX2                !
 ! R18   R(12,14)                1.0919         estimate D2E/DX2                !
 ! R19   R(12,15)                1.0977         estimate D2E/DX2                !
 ! R20   R(16,17)                1.0929         estimate D2E/DX2                !
 ! R21   R(16,18)                1.0914         estimate D2E/DX2                !
 ! R22   R(16,19)                1.1037         estimate D2E/DX2                !
 ! R23   R(20,21)                1.0941         estimate D2E/DX2                !
 ! R24   R(20,22)                1.0987         estimate D2E/DX2                !
 ! R25   R(20,23)                1.0879         estimate D2E/DX2                !
 ! R26   R(24,73)                1.7571         estimate D2E/DX2                !
 ! R27   R(25,26)                1.4575         estimate D2E/DX2                !
 ! R28   R(25,55)                1.0209         estimate D2E/DX2                !
 ! R29   R(25,56)                1.0228         estimate D2E/DX2                !
 ! R30   R(26,27)                1.5443         estimate D2E/DX2                !
 ! R31   R(26,29)                1.5487         estimate D2E/DX2                !
 ! R32   R(26,54)                1.095          estimate D2E/DX2                !
 ! R33   R(27,28)                1.2329         estimate D2E/DX2                !
 ! R34   R(27,31)                1.3741         estimate D2E/DX2                !
 ! R35   R(29,30)                1.4195         estimate D2E/DX2                !
 ! R36   R(29,51)                1.1046         estimate D2E/DX2                !
 ! R37   R(29,52)                1.0925         estimate D2E/DX2                !
 ! R38   R(30,53)                0.9722         estimate D2E/DX2                !
 ! R39   R(31,32)                1.4517         estimate D2E/DX2                !
 ! R40   R(31,59)                1.0241         estimate D2E/DX2                !
 ! R41   R(32,33)                1.5346         estimate D2E/DX2                !
 ! R42   R(32,57)                1.086          estimate D2E/DX2                !
 ! R43   R(32,58)                1.1085         estimate D2E/DX2                !
 ! R44   R(33,34)                1.2416         estimate D2E/DX2                !
 ! R45   R(33,35)                1.3553         estimate D2E/DX2                !
 ! R46   R(35,36)                1.4452         estimate D2E/DX2                !
 ! R47   R(35,63)                1.0221         estimate D2E/DX2                !
 ! R48   R(36,37)                1.5432         estimate D2E/DX2                !
 ! R49   R(36,39)                1.5733         estimate D2E/DX2                !
 ! R50   R(36,62)                1.1016         estimate D2E/DX2                !
 ! R51   R(37,38)                1.2353         estimate D2E/DX2                !
 ! R52   R(37,41)                1.3526         estimate D2E/DX2                !
 ! R53   R(39,40)                1.9193         estimate D2E/DX2                !
 ! R54   R(39,60)                1.1225         estimate D2E/DX2                !
 ! R55   R(39,61)                1.1077         estimate D2E/DX2                !
 ! R56   R(41,42)                1.4597         estimate D2E/DX2                !
 ! R57   R(41,67)                1.0271         estimate D2E/DX2                !
 ! R58   R(42,43)                1.547          estimate D2E/DX2                !
 ! R59   R(42,44)                1.5454         estimate D2E/DX2                !
 ! R60   R(42,66)                1.0909         estimate D2E/DX2                !
 ! R61   R(43,64)                1.1073         estimate D2E/DX2                !
 ! R62   R(43,65)                1.0909         estimate D2E/DX2                !
 ! R63   R(43,72)                1.9874         estimate D2E/DX2                !
 ! R64   R(44,45)                1.2326         estimate D2E/DX2                !
 ! R65   R(44,46)                1.3581         estimate D2E/DX2                !
 ! R66   R(46,47)                1.4515         estimate D2E/DX2                !
 ! R67   R(46,70)                1.0151         estimate D2E/DX2                !
 ! R68   R(47,48)                1.5205         estimate D2E/DX2                !
 ! R69   R(47,68)                1.1003         estimate D2E/DX2                !
 ! R70   R(47,69)                1.0962         estimate D2E/DX2                !
 ! R71   R(48,49)                1.2105         estimate D2E/DX2                !
 ! R72   R(48,50)                1.3402         estimate D2E/DX2                !
 ! R73   R(50,71)                0.9759         estimate D2E/DX2                !
 ! R74   R(73,84)                1.2937         estimate D2E/DX2                !
 ! R75   R(73,85)                1.3852         estimate D2E/DX2                !
 ! R76   R(74,75)                1.4043         estimate D2E/DX2                !
 ! R77   R(74,76)                1.3802         estimate D2E/DX2                !
 ! R78   R(74,85)                1.3831         estimate D2E/DX2                !
 ! R79   R(75,77)                1.3941         estimate D2E/DX2                !
 ! R80   R(75,84)                1.4021         estimate D2E/DX2                !
 ! R81   R(76,78)                1.3964         estimate D2E/DX2                !
 ! R82   R(76,79)                1.0864         estimate D2E/DX2                !
 ! R83   R(77,80)                1.396          estimate D2E/DX2                !
 ! R84   R(77,81)                1.0872         estimate D2E/DX2                !
 ! R85   R(78,80)                1.4077         estimate D2E/DX2                !
 ! R86   R(78,82)                1.0933         estimate D2E/DX2                !
 ! R87   R(80,83)                1.0841         estimate D2E/DX2                !
 ! A1    A(2,1,24)             104.7566         estimate D2E/DX2                !
 ! A2    A(2,1,40)              88.6481         estimate D2E/DX2                !
 ! A3    A(24,1,72)             87.3195         estimate D2E/DX2                !
 ! A4    A(40,1,72)             79.3475         estimate D2E/DX2                !
 ! A5    A(1,2,3)              118.1961         estimate D2E/DX2                !
 ! A6    A(1,2,6)              112.9699         estimate D2E/DX2                !
 ! A7    A(1,2,9)              107.2039         estimate D2E/DX2                !
 ! A8    A(3,2,6)              107.9919         estimate D2E/DX2                !
 ! A9    A(3,2,9)              103.2034         estimate D2E/DX2                !
 ! A10   A(6,2,9)              106.1901         estimate D2E/DX2                !
 ! A11   A(2,3,4)              106.1599         estimate D2E/DX2                !
 ! A12   A(2,3,5)              105.2903         estimate D2E/DX2                !
 ! A13   A(2,3,12)             116.3209         estimate D2E/DX2                !
 ! A14   A(4,3,5)              106.6175         estimate D2E/DX2                !
 ! A15   A(4,3,12)             111.1112         estimate D2E/DX2                !
 ! A16   A(5,3,12)             110.7317         estimate D2E/DX2                !
 ! A17   A(2,6,7)              107.4972         estimate D2E/DX2                !
 ! A18   A(2,6,8)              105.3369         estimate D2E/DX2                !
 ! A19   A(2,6,20)             113.7146         estimate D2E/DX2                !
 ! A20   A(7,6,8)              108.6581         estimate D2E/DX2                !
 ! A21   A(7,6,20)             111.7298         estimate D2E/DX2                !
 ! A22   A(8,6,20)             109.6058         estimate D2E/DX2                !
 ! A23   A(2,9,10)             106.8926         estimate D2E/DX2                !
 ! A24   A(2,9,11)             106.3286         estimate D2E/DX2                !
 ! A25   A(2,9,16)             116.2426         estimate D2E/DX2                !
 ! A26   A(10,9,11)            105.7316         estimate D2E/DX2                !
 ! A27   A(10,9,16)            110.5535         estimate D2E/DX2                !
 ! A28   A(11,9,16)            110.4818         estimate D2E/DX2                !
 ! A29   A(3,12,13)            112.2348         estimate D2E/DX2                !
 ! A30   A(3,12,14)            111.4348         estimate D2E/DX2                !
 ! A31   A(3,12,15)            109.3996         estimate D2E/DX2                !
 ! A32   A(13,12,14)           107.4906         estimate D2E/DX2                !
 ! A33   A(13,12,15)           108.0544         estimate D2E/DX2                !
 ! A34   A(14,12,15)           108.079          estimate D2E/DX2                !
 ! A35   A(9,16,17)            109.1894         estimate D2E/DX2                !
 ! A36   A(9,16,18)            111.9379         estimate D2E/DX2                !
 ! A37   A(9,16,19)            112.5883         estimate D2E/DX2                !
 ! A38   A(17,16,18)           107.7901         estimate D2E/DX2                !
 ! A39   A(17,16,19)           106.7263         estimate D2E/DX2                !
 ! A40   A(18,16,19)           108.37           estimate D2E/DX2                !
 ! A41   A(6,20,21)            111.5792         estimate D2E/DX2                !
 ! A42   A(6,20,22)            108.9073         estimate D2E/DX2                !
 ! A43   A(6,20,23)            112.7161         estimate D2E/DX2                !
 ! A44   A(21,20,22)           107.0728         estimate D2E/DX2                !
 ! A45   A(21,20,23)           108.5948         estimate D2E/DX2                !
 ! A46   A(22,20,23)           107.7467         estimate D2E/DX2                !
 ! A47   A(1,24,73)            115.3656         estimate D2E/DX2                !
 ! A48   A(26,25,55)           107.4051         estimate D2E/DX2                !
 ! A49   A(26,25,56)           110.0175         estimate D2E/DX2                !
 ! A50   A(55,25,56)           105.1234         estimate D2E/DX2                !
 ! A51   A(25,26,27)           111.1294         estimate D2E/DX2                !
 ! A52   A(25,26,29)           107.337          estimate D2E/DX2                !
 ! A53   A(25,26,54)           108.7689         estimate D2E/DX2                !
 ! A54   A(27,26,29)           110.3971         estimate D2E/DX2                !
 ! A55   A(27,26,54)           110.8923         estimate D2E/DX2                !
 ! A56   A(29,26,54)           108.1968         estimate D2E/DX2                !
 ! A57   A(26,27,28)           119.4486         estimate D2E/DX2                !
 ! A58   A(26,27,31)           120.5353         estimate D2E/DX2                !
 ! A59   A(28,27,31)           119.9749         estimate D2E/DX2                !
 ! A60   A(26,29,30)           114.4735         estimate D2E/DX2                !
 ! A61   A(26,29,51)           106.468          estimate D2E/DX2                !
 ! A62   A(26,29,52)           110.1044         estimate D2E/DX2                !
 ! A63   A(30,29,51)           110.9087         estimate D2E/DX2                !
 ! A64   A(30,29,52)           106.3962         estimate D2E/DX2                !
 ! A65   A(51,29,52)           108.3872         estimate D2E/DX2                !
 ! A66   A(29,30,53)           108.6392         estimate D2E/DX2                !
 ! A67   A(27,31,32)           129.0797         estimate D2E/DX2                !
 ! A68   A(27,31,59)           112.7686         estimate D2E/DX2                !
 ! A69   A(32,31,59)           117.8513         estimate D2E/DX2                !
 ! A70   A(31,32,33)           114.0929         estimate D2E/DX2                !
 ! A71   A(31,32,57)           111.5563         estimate D2E/DX2                !
 ! A72   A(31,32,58)           106.8005         estimate D2E/DX2                !
 ! A73   A(33,32,57)           106.4286         estimate D2E/DX2                !
 ! A74   A(33,32,58)           110.2165         estimate D2E/DX2                !
 ! A75   A(57,32,58)           107.6018         estimate D2E/DX2                !
 ! A76   A(32,33,34)           119.2803         estimate D2E/DX2                !
 ! A77   A(32,33,35)           119.7443         estimate D2E/DX2                !
 ! A78   A(34,33,35)           120.9608         estimate D2E/DX2                !
 ! A79   A(33,35,36)           131.1838         estimate D2E/DX2                !
 ! A80   A(33,35,63)           114.3191         estimate D2E/DX2                !
 ! A81   A(36,35,63)           114.3736         estimate D2E/DX2                !
 ! A82   A(35,36,37)           118.3874         estimate D2E/DX2                !
 ! A83   A(35,36,39)           109.281          estimate D2E/DX2                !
 ! A84   A(35,36,62)           110.4907         estimate D2E/DX2                !
 ! A85   A(37,36,39)           107.4462         estimate D2E/DX2                !
 ! A86   A(37,36,62)           104.6504         estimate D2E/DX2                !
 ! A87   A(39,36,62)           105.8163         estimate D2E/DX2                !
 ! A88   A(36,37,38)           117.9011         estimate D2E/DX2                !
 ! A89   A(36,37,41)           116.7325         estimate D2E/DX2                !
 ! A90   A(38,37,41)           124.8897         estimate D2E/DX2                !
 ! A91   A(36,39,40)           121.5026         estimate D2E/DX2                !
 ! A92   A(36,39,60)           106.4938         estimate D2E/DX2                !
 ! A93   A(36,39,61)           109.4145         estimate D2E/DX2                !
 ! A94   A(40,39,60)            97.4687         estimate D2E/DX2                !
 ! A95   A(40,39,61)           111.8946         estimate D2E/DX2                !
 ! A96   A(60,39,61)           108.664          estimate D2E/DX2                !
 ! A97   A(1,40,39)            122.1846         estimate D2E/DX2                !
 ! A98   A(37,41,42)           120.3729         estimate D2E/DX2                !
 ! A99   A(37,41,67)           120.1452         estimate D2E/DX2                !
 ! A100  A(42,41,67)           119.0791         estimate D2E/DX2                !
 ! A101  A(41,42,43)           112.8521         estimate D2E/DX2                !
 ! A102  A(41,42,44)           109.4411         estimate D2E/DX2                !
 ! A103  A(41,42,66)           105.706          estimate D2E/DX2                !
 ! A104  A(43,42,44)           108.0646         estimate D2E/DX2                !
 ! A105  A(43,42,66)           109.6097         estimate D2E/DX2                !
 ! A106  A(44,42,66)           111.1969         estimate D2E/DX2                !
 ! A107  A(42,43,64)           108.7175         estimate D2E/DX2                !
 ! A108  A(42,43,65)           110.3927         estimate D2E/DX2                !
 ! A109  A(42,43,72)           112.5629         estimate D2E/DX2                !
 ! A110  A(64,43,65)           106.6308         estimate D2E/DX2                !
 ! A111  A(64,43,72)           110.1577         estimate D2E/DX2                !
 ! A112  A(65,43,72)           108.2119         estimate D2E/DX2                !
 ! A113  A(42,44,45)           120.2442         estimate D2E/DX2                !
 ! A114  A(42,44,46)           117.6654         estimate D2E/DX2                !
 ! A115  A(45,44,46)           122.0501         estimate D2E/DX2                !
 ! A116  A(44,46,47)           126.6601         estimate D2E/DX2                !
 ! A117  A(44,46,70)           114.5902         estimate D2E/DX2                !
 ! A118  A(47,46,70)           114.0877         estimate D2E/DX2                !
 ! A119  A(46,47,48)           108.389          estimate D2E/DX2                !
 ! A120  A(46,47,68)           112.6176         estimate D2E/DX2                !
 ! A121  A(46,47,69)           112.5106         estimate D2E/DX2                !
 ! A122  A(48,47,68)           107.3378         estimate D2E/DX2                !
 ! A123  A(48,47,69)           108.0116         estimate D2E/DX2                !
 ! A124  A(68,47,69)           107.7569         estimate D2E/DX2                !
 ! A125  A(47,48,49)           124.6726         estimate D2E/DX2                !
 ! A126  A(47,48,50)           111.4654         estimate D2E/DX2                !
 ! A127  A(49,48,50)           123.8265         estimate D2E/DX2                !
 ! A128  A(48,50,71)           106.0054         estimate D2E/DX2                !
 ! A129  A(1,72,43)            102.0234         estimate D2E/DX2                !
 ! A130  A(24,73,84)           130.8064         estimate D2E/DX2                !
 ! A131  A(24,73,85)           114.1473         estimate D2E/DX2                !
 ! A132  A(84,73,85)           115.0446         estimate D2E/DX2                !
 ! A133  A(75,74,76)           123.6249         estimate D2E/DX2                !
 ! A134  A(75,74,85)           107.1295         estimate D2E/DX2                !
 ! A135  A(76,74,85)           129.2447         estimate D2E/DX2                !
 ! A136  A(74,75,77)           119.932          estimate D2E/DX2                !
 ! A137  A(74,75,84)           108.6652         estimate D2E/DX2                !
 ! A138  A(77,75,84)           131.4017         estimate D2E/DX2                !
 ! A139  A(74,76,78)           115.8797         estimate D2E/DX2                !
 ! A140  A(74,76,79)           121.8553         estimate D2E/DX2                !
 ! A141  A(78,76,79)           122.2644         estimate D2E/DX2                !
 ! A142  A(75,77,80)           117.65           estimate D2E/DX2                !
 ! A143  A(75,77,81)           121.0175         estimate D2E/DX2                !
 ! A144  A(80,77,81)           121.3318         estimate D2E/DX2                !
 ! A145  A(76,78,80)           121.8821         estimate D2E/DX2                !
 ! A146  A(76,78,82)           118.9664         estimate D2E/DX2                !
 ! A147  A(80,78,82)           119.1499         estimate D2E/DX2                !
 ! A148  A(77,80,78)           121.0267         estimate D2E/DX2                !
 ! A149  A(77,80,83)           119.63           estimate D2E/DX2                !
 ! A150  A(78,80,83)           119.336          estimate D2E/DX2                !
 ! A151  A(73,84,75)           104.889          estimate D2E/DX2                !
 ! A152  A(73,85,74)           104.2715         estimate D2E/DX2                !
 ! A153  L(2,1,72,40,-1)       167.9956         estimate D2E/DX2                !
 ! A154  L(24,1,40,72,-1)      166.667          estimate D2E/DX2                !
 ! A155  L(2,1,72,40,-2)       174.424          estimate D2E/DX2                !
 ! A156  L(24,1,40,72,-2)      178.6049         estimate D2E/DX2                !
 ! D1    D(24,1,2,3)            51.7812         estimate D2E/DX2                !
 ! D2    D(24,1,2,6)           -75.6556         estimate D2E/DX2                !
 ! D3    D(24,1,2,9)           167.7125         estimate D2E/DX2                !
 ! D4    D(40,1,2,3)          -128.3256         estimate D2E/DX2                !
 ! D5    D(40,1,2,6)           104.2376         estimate D2E/DX2                !
 ! D6    D(40,1,2,9)           -12.3943         estimate D2E/DX2                !
 ! D7    D(3,2,72,43)          114.719          estimate D2E/DX2                !
 ! D8    D(6,2,72,43)          -18.8234         estimate D2E/DX2                !
 ! D9    D(9,2,72,43)         -133.324          estimate D2E/DX2                !
 ! D10   D(2,1,24,73)           39.9426         estimate D2E/DX2                !
 ! D11   D(72,1,24,73)        -145.5207         estimate D2E/DX2                !
 ! D12   D(73,24,40,39)       -119.4482         estimate D2E/DX2                !
 ! D13   D(2,1,40,39)         -160.6786         estimate D2E/DX2                !
 ! D14   D(72,1,40,39)          24.8975         estimate D2E/DX2                !
 ! D15   D(24,1,72,43)          57.514          estimate D2E/DX2                !
 ! D16   D(40,1,72,43)        -121.0909         estimate D2E/DX2                !
 ! D17   D(1,2,3,4)            178.6654         estimate D2E/DX2                !
 ! D18   D(1,2,3,5)             65.8421         estimate D2E/DX2                !
 ! D19   D(1,2,3,12)           -57.1601         estimate D2E/DX2                !
 ! D20   D(6,2,3,4)            -51.5677         estimate D2E/DX2                !
 ! D21   D(6,2,3,5)           -164.391          estimate D2E/DX2                !
 ! D22   D(6,2,3,12)            72.6068         estimate D2E/DX2                !
 ! D23   D(9,2,3,4)             60.5997         estimate D2E/DX2                !
 ! D24   D(9,2,3,5)            -52.2236         estimate D2E/DX2                !
 ! D25   D(9,2,3,12)          -175.2258         estimate D2E/DX2                !
 ! D26   D(1,2,6,7)           -176.8849         estimate D2E/DX2                !
 ! D27   D(1,2,6,8)             67.3752         estimate D2E/DX2                !
 ! D28   D(1,2,6,20)           -52.658          estimate D2E/DX2                !
 ! D29   D(3,2,6,7)             50.4884         estimate D2E/DX2                !
 ! D30   D(3,2,6,8)            -65.2515         estimate D2E/DX2                !
 ! D31   D(3,2,6,20)           174.7153         estimate D2E/DX2                !
 ! D32   D(9,2,6,7)            -59.6544         estimate D2E/DX2                !
 ! D33   D(9,2,6,8)           -175.3943         estimate D2E/DX2                !
 ! D34   D(9,2,6,20)            64.5725         estimate D2E/DX2                !
 ! D35   D(1,2,9,10)            46.2274         estimate D2E/DX2                !
 ! D36   D(1,2,9,11)           -66.3689         estimate D2E/DX2                !
 ! D37   D(1,2,9,16)           170.1994         estimate D2E/DX2                !
 ! D38   D(3,2,9,10)           171.7266         estimate D2E/DX2                !
 ! D39   D(3,2,9,11)            59.1304         estimate D2E/DX2                !
 ! D40   D(3,2,9,16)           -64.3013         estimate D2E/DX2                !
 ! D41   D(6,2,9,10)           -74.7897         estimate D2E/DX2                !
 ! D42   D(6,2,9,11)           172.6141         estimate D2E/DX2                !
 ! D43   D(6,2,9,16)            49.1824         estimate D2E/DX2                !
 ! D44   D(2,3,12,13)          -59.8752         estimate D2E/DX2                !
 ! D45   D(2,3,12,14)           60.743          estimate D2E/DX2                !
 ! D46   D(2,3,12,15)         -179.8042         estimate D2E/DX2                !
 ! D47   D(4,3,12,13)           61.7154         estimate D2E/DX2                !
 ! D48   D(4,3,12,14)         -177.6664         estimate D2E/DX2                !
 ! D49   D(4,3,12,15)          -58.2136         estimate D2E/DX2                !
 ! D50   D(5,3,12,13)         -179.9957         estimate D2E/DX2                !
 ! D51   D(5,3,12,14)          -59.3776         estimate D2E/DX2                !
 ! D52   D(5,3,12,15)           60.0752         estimate D2E/DX2                !
 ! D53   D(2,6,20,21)           63.5629         estimate D2E/DX2                !
 ! D54   D(2,6,20,22)         -178.4553         estimate D2E/DX2                !
 ! D55   D(2,6,20,23)          -58.9385         estimate D2E/DX2                !
 ! D56   D(7,6,20,21)         -174.5275         estimate D2E/DX2                !
 ! D57   D(7,6,20,22)          -56.5458         estimate D2E/DX2                !
 ! D58   D(7,6,20,23)           62.9711         estimate D2E/DX2                !
 ! D59   D(8,6,20,21)          -54.0267         estimate D2E/DX2                !
 ! D60   D(8,6,20,22)           63.9551         estimate D2E/DX2                !
 ! D61   D(8,6,20,23)         -176.5281         estimate D2E/DX2                !
 ! D62   D(2,9,16,17)          178.5071         estimate D2E/DX2                !
 ! D63   D(2,9,16,18)          -62.2224         estimate D2E/DX2                !
 ! D64   D(2,9,16,19)           60.1583         estimate D2E/DX2                !
 ! D65   D(10,9,16,17)         -59.4307         estimate D2E/DX2                !
 ! D66   D(10,9,16,18)          59.8398         estimate D2E/DX2                !
 ! D67   D(10,9,16,19)        -177.7795         estimate D2E/DX2                !
 ! D68   D(11,9,16,17)          57.2588         estimate D2E/DX2                !
 ! D69   D(11,9,16,18)         176.5294         estimate D2E/DX2                !
 ! D70   D(11,9,16,19)         -61.0899         estimate D2E/DX2                !
 ! D71   D(1,24,73,84)          -4.7387         estimate D2E/DX2                !
 ! D72   D(1,24,73,85)         174.7629         estimate D2E/DX2                !
 ! D73   D(55,25,26,27)         44.8251         estimate D2E/DX2                !
 ! D74   D(55,25,26,29)        -75.9767         estimate D2E/DX2                !
 ! D75   D(55,25,26,54)        167.1768         estimate D2E/DX2                !
 ! D76   D(56,25,26,27)        -69.0787         estimate D2E/DX2                !
 ! D77   D(56,25,26,29)        170.1194         estimate D2E/DX2                !
 ! D78   D(56,25,26,54)         53.273          estimate D2E/DX2                !
 ! D79   D(25,26,27,28)        -43.3212         estimate D2E/DX2                !
 ! D80   D(25,26,27,31)        134.3437         estimate D2E/DX2                !
 ! D81   D(29,26,27,28)         75.6612         estimate D2E/DX2                !
 ! D82   D(29,26,27,31)       -106.6738         estimate D2E/DX2                !
 ! D83   D(54,26,27,28)       -164.4345         estimate D2E/DX2                !
 ! D84   D(54,26,27,31)         13.2304         estimate D2E/DX2                !
 ! D85   D(25,26,29,30)       -174.4408         estimate D2E/DX2                !
 ! D86   D(25,26,29,51)        -51.5231         estimate D2E/DX2                !
 ! D87   D(25,26,29,52)         65.7657         estimate D2E/DX2                !
 ! D88   D(27,26,29,30)         64.2958         estimate D2E/DX2                !
 ! D89   D(27,26,29,51)       -172.7865         estimate D2E/DX2                !
 ! D90   D(27,26,29,52)        -55.4977         estimate D2E/DX2                !
 ! D91   D(54,26,29,30)        -57.2197         estimate D2E/DX2                !
 ! D92   D(54,26,29,51)         65.698          estimate D2E/DX2                !
 ! D93   D(54,26,29,52)       -177.0132         estimate D2E/DX2                !
 ! D94   D(26,27,31,32)          3.1495         estimate D2E/DX2                !
 ! D95   D(26,27,31,59)        176.6299         estimate D2E/DX2                !
 ! D96   D(28,27,31,32)       -179.1979         estimate D2E/DX2                !
 ! D97   D(28,27,31,59)         -5.7175         estimate D2E/DX2                !
 ! D98   D(26,29,30,53)         58.8883         estimate D2E/DX2                !
 ! D99   D(51,29,30,53)        -61.5966         estimate D2E/DX2                !
 ! D100  D(52,29,30,53)       -179.2679         estimate D2E/DX2                !
 ! D101  D(27,31,32,33)         65.1222         estimate D2E/DX2                !
 ! D102  D(27,31,32,57)        -55.5258         estimate D2E/DX2                !
 ! D103  D(27,31,32,58)       -172.8428         estimate D2E/DX2                !
 ! D104  D(59,31,32,33)       -108.0774         estimate D2E/DX2                !
 ! D105  D(59,31,32,57)        131.2746         estimate D2E/DX2                !
 ! D106  D(59,31,32,58)         13.9577         estimate D2E/DX2                !
 ! D107  D(31,32,33,34)       -113.9058         estimate D2E/DX2                !
 ! D108  D(31,32,33,35)         64.7183         estimate D2E/DX2                !
 ! D109  D(57,32,33,34)          9.5615         estimate D2E/DX2                !
 ! D110  D(57,32,33,35)       -171.8143         estimate D2E/DX2                !
 ! D111  D(58,32,33,34)        125.9562         estimate D2E/DX2                !
 ! D112  D(58,32,33,35)        -55.4196         estimate D2E/DX2                !
 ! D113  D(32,33,35,36)         -2.8268         estimate D2E/DX2                !
 ! D114  D(32,33,35,63)       -178.4908         estimate D2E/DX2                !
 ! D115  D(34,33,35,36)        175.7737         estimate D2E/DX2                !
 ! D116  D(34,33,35,63)          0.1098         estimate D2E/DX2                !
 ! D117  D(33,35,36,37)        -72.3925         estimate D2E/DX2                !
 ! D118  D(33,35,36,39)        164.2344         estimate D2E/DX2                !
 ! D119  D(33,35,36,62)         48.1955         estimate D2E/DX2                !
 ! D120  D(63,35,36,37)        103.2696         estimate D2E/DX2                !
 ! D121  D(63,35,36,39)        -20.1035         estimate D2E/DX2                !
 ! D122  D(63,35,36,62)       -136.1424         estimate D2E/DX2                !
 ! D123  D(35,36,37,38)        150.4703         estimate D2E/DX2                !
 ! D124  D(35,36,37,41)        -37.0586         estimate D2E/DX2                !
 ! D125  D(39,36,37,38)        -85.2476         estimate D2E/DX2                !
 ! D126  D(39,36,37,41)         87.2234         estimate D2E/DX2                !
 ! D127  D(62,36,37,38)         26.9283         estimate D2E/DX2                !
 ! D128  D(62,36,37,41)       -160.6006         estimate D2E/DX2                !
 ! D129  D(35,36,39,40)         25.1622         estimate D2E/DX2                !
 ! D130  D(35,36,39,60)        -84.7428         estimate D2E/DX2                !
 ! D131  D(35,36,39,61)        157.9843         estimate D2E/DX2                !
 ! D132  D(37,36,39,40)       -104.4738         estimate D2E/DX2                !
 ! D133  D(37,36,39,60)        145.6213         estimate D2E/DX2                !
 ! D134  D(37,36,39,61)         28.3484         estimate D2E/DX2                !
 ! D135  D(62,36,39,40)        144.1449         estimate D2E/DX2                !
 ! D136  D(62,36,39,60)         34.2399         estimate D2E/DX2                !
 ! D137  D(62,36,39,61)        -83.0329         estimate D2E/DX2                !
 ! D138  D(36,37,41,42)       -150.8057         estimate D2E/DX2                !
 ! D139  D(36,37,41,67)         21.8434         estimate D2E/DX2                !
 ! D140  D(38,37,41,42)         21.0787         estimate D2E/DX2                !
 ! D141  D(38,37,41,67)       -166.2721         estimate D2E/DX2                !
 ! D142  D(36,39,40,1)          77.257          estimate D2E/DX2                !
 ! D143  D(60,39,40,1)        -168.1493         estimate D2E/DX2                !
 ! D144  D(61,39,40,1)         -54.5379         estimate D2E/DX2                !
 ! D145  D(37,41,42,43)        112.5871         estimate D2E/DX2                !
 ! D146  D(37,41,42,44)       -127.042          estimate D2E/DX2                !
 ! D147  D(37,41,42,66)         -7.2033         estimate D2E/DX2                !
 ! D148  D(67,41,42,43)        -60.1398         estimate D2E/DX2                !
 ! D149  D(67,41,42,44)         60.2311         estimate D2E/DX2                !
 ! D150  D(67,41,42,66)       -179.9302         estimate D2E/DX2                !
 ! D151  D(41,42,43,64)       -170.9956         estimate D2E/DX2                !
 ! D152  D(41,42,43,65)         72.3666         estimate D2E/DX2                !
 ! D153  D(41,42,43,72)        -48.6661         estimate D2E/DX2                !
 ! D154  D(44,42,43,64)         67.8484         estimate D2E/DX2                !
 ! D155  D(44,42,43,65)        -48.7894         estimate D2E/DX2                !
 ! D156  D(44,42,43,72)       -169.8222         estimate D2E/DX2                !
 ! D157  D(66,42,43,64)        -53.48           estimate D2E/DX2                !
 ! D158  D(66,42,43,65)       -170.1177         estimate D2E/DX2                !
 ! D159  D(66,42,43,72)         68.8495         estimate D2E/DX2                !
 ! D160  D(41,42,44,45)        -77.5063         estimate D2E/DX2                !
 ! D161  D(41,42,44,46)        104.7559         estimate D2E/DX2                !
 ! D162  D(43,42,44,45)         45.745          estimate D2E/DX2                !
 ! D163  D(43,42,44,46)       -131.9928         estimate D2E/DX2                !
 ! D164  D(66,42,44,45)        166.0843         estimate D2E/DX2                !
 ! D165  D(66,42,44,46)        -11.6536         estimate D2E/DX2                !
 ! D166  D(42,43,72,1)         110.8267         estimate D2E/DX2                !
 ! D167  D(64,43,72,1)        -127.6597         estimate D2E/DX2                !
 ! D168  D(65,43,72,1)         -11.4452         estimate D2E/DX2                !
 ! D169  D(42,44,46,47)        -19.4293         estimate D2E/DX2                !
 ! D170  D(42,44,46,70)       -173.6045         estimate D2E/DX2                !
 ! D171  D(45,44,46,47)        162.8764         estimate D2E/DX2                !
 ! D172  D(45,44,46,70)          8.7011         estimate D2E/DX2                !
 ! D173  D(44,46,47,48)       -148.5829         estimate D2E/DX2                !
 ! D174  D(44,46,47,68)         92.816          estimate D2E/DX2                !
 ! D175  D(44,46,47,69)        -29.2096         estimate D2E/DX2                !
 ! D176  D(70,46,47,48)          5.7021         estimate D2E/DX2                !
 ! D177  D(70,46,47,68)       -112.899          estimate D2E/DX2                !
 ! D178  D(70,46,47,69)        125.0754         estimate D2E/DX2                !
 ! D179  D(46,47,48,49)         -8.5325         estimate D2E/DX2                !
 ! D180  D(46,47,48,50)        173.5666         estimate D2E/DX2                !
 ! D181  D(68,47,48,49)        113.3615         estimate D2E/DX2                !
 ! D182  D(68,47,48,50)        -64.5393         estimate D2E/DX2                !
 ! D183  D(69,47,48,49)       -130.6961         estimate D2E/DX2                !
 ! D184  D(69,47,48,50)         51.403          estimate D2E/DX2                !
 ! D185  D(47,48,50,71)        178.6164         estimate D2E/DX2                !
 ! D186  D(49,48,50,71)          0.6945         estimate D2E/DX2                !
 ! D187  D(24,73,84,75)        179.4225         estimate D2E/DX2                !
 ! D188  D(85,73,84,75)         -0.0756         estimate D2E/DX2                !
 ! D189  D(24,73,85,74)       -179.4533         estimate D2E/DX2                !
 ! D190  D(84,73,85,74)          0.1303         estimate D2E/DX2                !
 ! D191  D(76,74,75,77)          0.1356         estimate D2E/DX2                !
 ! D192  D(76,74,75,84)        179.7919         estimate D2E/DX2                !
 ! D193  D(85,74,75,77)       -179.568          estimate D2E/DX2                !
 ! D194  D(85,74,75,84)          0.0884         estimate D2E/DX2                !
 ! D195  D(75,74,76,78)         -0.181          estimate D2E/DX2                !
 ! D196  D(75,74,76,79)        179.5416         estimate D2E/DX2                !
 ! D197  D(85,74,76,78)        179.4532         estimate D2E/DX2                !
 ! D198  D(85,74,76,79)         -0.8242         estimate D2E/DX2                !
 ! D199  D(75,74,85,73)         -0.125          estimate D2E/DX2                !
 ! D200  D(76,74,85,73)       -179.8062         estimate D2E/DX2                !
 ! D201  D(74,75,77,80)          0.3473         estimate D2E/DX2                !
 ! D202  D(74,75,77,81)       -179.9656         estimate D2E/DX2                !
 ! D203  D(84,75,77,80)       -179.2186         estimate D2E/DX2                !
 ! D204  D(84,75,77,81)          0.4684         estimate D2E/DX2                !
 ! D205  D(74,75,84,73)         -0.0103         estimate D2E/DX2                !
 ! D206  D(77,75,84,73)        179.5927         estimate D2E/DX2                !
 ! D207  D(74,76,78,80)         -0.2595         estimate D2E/DX2                !
 ! D208  D(74,76,78,82)       -179.7824         estimate D2E/DX2                !
 ! D209  D(79,76,78,80)       -179.9809         estimate D2E/DX2                !
 ! D210  D(79,76,78,82)          0.4963         estimate D2E/DX2                !
 ! D211  D(75,77,80,78)         -0.7783         estimate D2E/DX2                !
 ! D212  D(75,77,80,83)       -179.7893         estimate D2E/DX2                !
 ! D213  D(81,77,80,78)        179.5358         estimate D2E/DX2                !
 ! D214  D(81,77,80,83)          0.5247         estimate D2E/DX2                !
 ! D215  D(76,78,80,77)          0.7578         estimate D2E/DX2                !
 ! D216  D(76,78,80,83)        179.7717         estimate D2E/DX2                !
 ! D217  D(82,78,80,77)       -179.7202         estimate D2E/DX2                !
 ! D218  D(82,78,80,83)         -0.7063         estimate D2E/DX2                !
 --------------------------------------------------------------------------------
 Trust Radius=3.00D-01 FncErr=1.00D-07 GrdErr=1.00D-06
 Number of steps in this run=    471 maximum allowed number of steps=    510.
 GradGradGradGradGradGradGradGradGradGradGradGradGradGradGradGradGradGrad

 Stoichiometry    C26H40AuN6O8PS2Se
 Framework group  C1[X(C26H40AuN6O8PS2Se)]
 Deg. of freedom   249
 Full point group                 C1      NOp   1
 Largest Abelian subgroup         C1      NOp   1
 Largest concise Abelian subgroup C1      NOp   1
                         Standard orientation:                         
 ---------------------------------------------------------------------
 Center     Atomic      Atomic             Coordinates (Angstroms)
 Number     Number       Type             X           Y           Z
 ---------------------------------------------------------------------
      1         79           0       -1.691396   -1.108119   -0.975241
      2         15           0       -3.358204   -1.854447    0.662355
      3          6           0       -5.129157   -1.953720    0.126043
      4          1           0       -5.691061   -2.327452    0.993673
      5          1           0       -5.157976   -2.746563   -0.631588
      6          6           0       -3.293368   -0.901525    2.241387
      7          1           0       -4.029722   -1.341686    2.922056
      8          1           0       -3.619064    0.115193    1.980885
      9          6           0       -2.949226   -3.609582    1.100402
     10          1           0       -1.871166   -3.648484    1.284330
     11          1           0       -3.117782   -4.202195    0.190930
     12          6           0       -5.745133   -0.667423   -0.414798
     13          1           0       -5.729028    0.140153    0.321298
     14          1           0       -5.215598   -0.313606   -1.301789
     15          1           0       -6.790502   -0.852879   -0.693516
     16          6           0       -3.717429   -4.209081    2.280101
     17          1           0       -3.407825   -5.247831    2.419753
     18          1           0       -3.518692   -3.673958    3.210317
     19          1           0       -4.808274   -4.222517    2.112785
     20          6           0       -1.891813   -0.848366    2.875195
     21          1           0       -1.179409   -0.322172    2.232852
     22          1           0       -1.948972   -0.289236    3.819228
     23          1           0       -1.493906   -1.836005    3.098319
     24         16           0       -2.600685    1.033125   -1.876774
     25          7           0        4.542876    2.097034    3.823868
     26          6           0        3.848215    0.982192    3.192236
     27          6           0        4.639254    0.449735    1.977454
     28          8           0        5.146294    1.248484    1.186962
     29          6           0        2.457448    1.497794    2.746794
     30          8           0        1.600079    0.496539    2.220219
     31          7           0        4.820805   -0.900756    1.800061
     32          6           0        4.307893   -2.004742    2.590918
     33          6           0        2.779827   -2.142164    2.557930
     34          8           0        2.130093   -1.947993    3.597946
     35          7           0        2.156950   -2.444985    1.392994
     36          6           0        2.675688   -2.632005    0.057147
     37          6           0        3.154933   -1.390604   -0.724266
     38          8           0        4.057435   -1.542669   -1.553863
     39          6           0        1.591666   -3.354888   -0.824612
     40         16           0       -0.279237   -3.232947   -0.413956
     41          7           0        2.442832   -0.253141   -0.555477
     42          6           0        2.366121    0.735407   -1.626709
     43          6           0        0.946736    0.859213   -2.229468
     44          6           0        2.776473    2.120832   -1.078496
     45          8           0        1.985573    2.779135   -0.399949
     46          7           0        4.005997    2.591849   -1.411531
     47          6           0        5.132481    1.811667   -1.890369
     48          6           0        6.413908    2.477190   -1.414118
     49          8           0        6.468694    3.560665   -0.877016
     50          8           0        7.490048    1.732772   -1.703672
     51          1           0        2.004101    1.979663    3.631324
     52          1           0        2.569428    2.251094    1.963444
     53          1           0        1.468346   -0.187740    2.898195
     54          1           0        3.698110    0.193350    3.936665
     55          1           0        4.862138    2.718888    3.079834
     56          1           0        5.396598    1.765026    4.278840
     57          1           0        4.585173   -1.909180    3.636542
     58          1           0        4.783923   -2.926677    2.200796
     59          1           0        5.313330   -1.123561    0.930300
     60          1           0        1.710705   -4.455244   -0.637475
     61          1           0        1.793599   -3.153471   -1.894917
     62          1           0        3.547598   -3.305117    0.072777
     63          1           0        1.138121   -2.492286    1.460333
     64          1           0        0.998694    1.497687   -3.132696
     65          1           0        0.278952    1.362816   -1.529131
     66          1           0        3.061388    0.393329   -2.394550
     67          1           0        1.860727   -0.128444    0.281450
     68          1           0        5.177010    1.762773   -2.988724
     69          1           0        5.122897    0.783571   -1.510059
     70          1           0        4.267859    3.455171   -0.946287
     71          1           0        8.261233    2.239777   -1.386442
     72         34           0        0.154333   -0.905961   -2.683207
     73          6           0       -3.359152    2.086626   -0.692651
     74          6           0       -4.301185    3.970401   -0.109364
     75          6           0       -4.210339    3.098437    0.987706
     76          6           0       -4.856089    5.232150   -0.038894
     77          6           0       -4.699272    3.492975    2.232218
     78          6           0       -5.343004    5.614816    1.212648
     79          1           0       -4.904970    5.886200   -0.904940
     80          6           0       -5.275167    4.760857    2.329704
     81          1           0       -4.637554    2.832325    3.093498
     82          1           0       -5.796517    6.603292    1.324737
     83          1           0       -5.662633    5.101693    3.283157
     84          7           0       -3.601380    1.908070    0.565579
     85          8           0       -3.752338    3.315391   -1.196885
 ---------------------------------------------------------------------
 Rotational constants (GHZ):      0.0680629      0.0374555      0.0331820
 General basis read from cards:  (5D, 7F)
 ======================================================================================================
                                       Pseudopotential Parameters
 ======================================================================================================
  Center     Atomic      Valence      Angular      Power
  Number     Number     Electrons     Momentum     of R      Exponent        Coefficient   SO-Coeffient
 ======================================================================================================
    1         79           19
                                      G and up 
                                                     1      622.6287956      -60.00000000    0.00000000
                                                     2      136.2843607     -555.52923120    0.00000000
                                                     2       33.1549781     -168.00197850    0.00000000
                                                     2        9.9894895      -63.03998750    0.00000000
                                                     2        3.0481312       -4.25166810    0.00000000
                                      S - G
                                                     0      194.7374304        3.00000000    0.00000000
                                                     1      351.5327447       38.60208800    0.00000000
                                                     2      122.3270402      864.83707270    0.00000000
                                                     2       32.0914617      374.99355200    0.00000000
                                                     2        5.2451812      289.79101000    0.00000000
                                                     2        4.4916223     -152.45327730    0.00000000
                                      P - G
                                                     0      420.6158801        2.00000000    0.00000000
                                                     1      109.4417815       73.88856250    0.00000000
                                                     2       34.1714280      326.67298720    0.00000000
                                                     2        5.9879750      126.58145910    0.00000000
                                      D - G
                                                     0      219.2666158        3.00000000    0.00000000
                                                     1      122.7297786       55.67931490    0.00000000
                                                     2       63.1063369      449.19873350    0.00000000
                                                     2       18.3684520      215.02690910    0.00000000
                                                     2        4.4972844       64.08409950    0.00000000
                                      F - G
                                                     0      108.5506037        4.00000000    0.00000000
                                                     1       56.4795527       51.80653350    0.00000000
                                                     2       29.2069159      231.21831130    0.00000000
                                                     2        9.5440543      119.00473860    0.00000000
                                                     2        2.8965118       15.34241880    0.00000000
    2         15
                                   No pseudopotential on this center.
    3          6
                                   No pseudopotential on this center.
    4          1
                                   No pseudopotential on this center.
    5          1
                                   No pseudopotential on this center.
    6          6
                                   No pseudopotential on this center.
    7          1
                                   No pseudopotential on this center.
    8          1
                                   No pseudopotential on this center.
    9          6
                                   No pseudopotential on this center.
   10          1
                                   No pseudopotential on this center.
   11          1
                                   No pseudopotential on this center.
   12          6
                                   No pseudopotential on this center.
   13          1
                                   No pseudopotential on this center.
   14          1
                                   No pseudopotential on this center.
   15          1
                                   No pseudopotential on this center.
   16          6
                                   No pseudopotential on this center.
   17          1
                                   No pseudopotential on this center.
   18          1
                                   No pseudopotential on this center.
   19          1
                                   No pseudopotential on this center.
   20          6
                                   No pseudopotential on this center.
   21          1
                                   No pseudopotential on this center.
   22          1
                                   No pseudopotential on this center.
   23          1
                                   No pseudopotential on this center.
   24         16
                                   No pseudopotential on this center.
   25          7
                                   No pseudopotential on this center.
   26          6
                                   No pseudopotential on this center.
   27          6
                                   No pseudopotential on this center.
   28          8
                                   No pseudopotential on this center.
   29          6
                                   No pseudopotential on this center.
   30          8
                                   No pseudopotential on this center.
   31          7
                                   No pseudopotential on this center.
   32          6
                                   No pseudopotential on this center.
   33          6
                                   No pseudopotential on this center.
   34          8
                                   No pseudopotential on this center.
   35          7
                                   No pseudopotential on this center.
   36          6
                                   No pseudopotential on this center.
   37          6
                                   No pseudopotential on this center.
   38          8
                                   No pseudopotential on this center.
   39          6
                                   No pseudopotential on this center.
   40         16
                                   No pseudopotential on this center.
   41          7
                                   No pseudopotential on this center.
   42          6
                                   No pseudopotential on this center.
   43          6
                                   No pseudopotential on this center.
   44          6
                                   No pseudopotential on this center.
   45          8
                                   No pseudopotential on this center.
   46          7
                                   No pseudopotential on this center.
   47          6
                                   No pseudopotential on this center.
   48          6
                                   No pseudopotential on this center.
   49          8
                                   No pseudopotential on this center.
   50          8
                                   No pseudopotential on this center.
   51          1
                                   No pseudopotential on this center.
   52          1
                                   No pseudopotential on this center.
   53          1
                                   No pseudopotential on this center.
   54          1
                                   No pseudopotential on this center.
   55          1
                                   No pseudopotential on this center.
   56          1
                                   No pseudopotential on this center.
   57          1
                                   No pseudopotential on this center.
   58          1
                                   No pseudopotential on this center.
   59          1
                                   No pseudopotential on this center.
   60          1
                                   No pseudopotential on this center.
   61          1
                                   No pseudopotential on this center.
   62          1
                                   No pseudopotential on this center.
   63          1
                                   No pseudopotential on this center.
   64          1
                                   No pseudopotential on this center.
   65          1
                                   No pseudopotential on this center.
   66          1
                                   No pseudopotential on this center.
   67          1
                                   No pseudopotential on this center.
   68          1
                                   No pseudopotential on this center.
   69          1
                                   No pseudopotential on this center.
   70          1
                                   No pseudopotential on this center.
   71          1
                                   No pseudopotential on this center.
   72         34
                                   No pseudopotential on this center.
   73          6
                                   No pseudopotential on this center.
   74          6
                                   No pseudopotential on this center.
   75          6
                                   No pseudopotential on this center.
   76          6
                                   No pseudopotential on this center.
   77          6
                                   No pseudopotential on this center.
   78          6
                                   No pseudopotential on this center.
   79          1
                                   No pseudopotential on this center.
   80          6
                                   No pseudopotential on this center.
   81          1
                                   No pseudopotential on this center.
   82          1
                                   No pseudopotential on this center.
   83          1
                                   No pseudopotential on this center.
   84          7
                                   No pseudopotential on this center.
   85          8
                                   No pseudopotential on this center.
 ======================================================================================================
 There are   815 symmetry adapted cartesian basis functions of A   symmetry.
 There are   764 symmetry adapted basis functions of A   symmetry.
   764 basis functions,  1567 primitive gaussians,   815 cartesian basis functions
   201 alpha electrons      201 beta electrons
       nuclear repulsion energy      8366.0947111557 Hartrees.
 NAtoms=   85 NActive=   85 NUniq=   85 SFac= 1.00D+00 NAtFMM=   60 NAOKFM=T Big=T
 Integral buffers will be    131072 words long.
 Raffenetti 2 integral format.
 Two-electron integral symmetry is turned on.
 One-electron integrals computed using PRISM.
   1 Symmetry operations used in ECPInt.
 ECPInt:  NShTT=   39621 NPrTT=  243552 LenC2=   28673 LenP2D=   88052.
 LDataN:  DoStor=T MaxTD1= 7 Len=  274
 NBasis=   764 RedAO= T EigKep=  4.42D-04  NBF=   764
 NBsUse=   764 1.00D-06 EigRej= -1.00D+00 NBFU=   764
 Defaulting to unpruned grid for atomic number  79.
 ExpMin= 2.79D-02 ExpMax= 5.61D+05 ExpMxC= 5.42D+03 IAcc=3 IRadAn=         5 AccDes= 0.00D+00
 Harris functional with IExCor=  402 and IRadAn=       5 diagonalized for initial guess.
 HarFok:  IExCor=  402 AccDes= 0.00D+00 IRadAn=         5 IDoV= 1 UseB2=F ITyADJ=14
 ICtDFT=  3500011 ScaDFX=  1.000000  1.000000  1.000000  1.000000
 Defaulting to unpruned grid for atomic number  79.
 Defaulting to unpruned grid for atomic number  79.
 Defaulting to unpruned grid for atomic number  79.
 Defaulting to unpruned grid for atomic number  79.
 Defaulting to unpruned grid for atomic number  79.
 Defaulting to unpruned grid for atomic number  79.
 Defaulting to unpruned grid for atomic number  79.
 Defaulting to unpruned grid for atomic number  79.
 FoFCou: FMM=F IPFlag=           0 FMFlag=      100000 FMFlg1=        2001
         NFxFlg=           0 DoJE=T BraDBF=F KetDBF=T FulRan=T
         wScrn=  0.000000 ICntrl=     500 IOpCl=  0 I1Cent=   200000004 NGrid=           0
         NMat0=    1 NMatS0=      1 NMatT0=    0 NMatD0=    1 NMtDS0=    0 NMtDT0=    0
 Petite list used in FoFCou.
 Requested convergence on RMS density matrix=1.00D-08 within 128 cycles.
 Requested convergence on MAX density matrix=1.00D-06.
 Requested convergence on             energy=1.00D-06.
 No special actions if energy rises.
 Defaulting to unpruned grid for atomic number  79.
 Defaulting to unpruned grid for atomic number  79.
 Defaulting to unpruned grid for atomic number  79.
 Defaulting to unpruned grid for atomic number  79.
 Defaulting to unpruned grid for atomic number  79.
 Defaulting to unpruned grid for atomic number  79.
 Defaulting to unpruned grid for atomic number  79.
 Defaulting to unpruned grid for atomic number  79.
 EnCoef did     6 forward-backward iterations
 EnCoef did   100 forward-backward iterations
 SCF Done:  E(RB3LYP) =  -5617.34960943     A.U. after   18 cycles
            NFock= 18  Conv=0.90D-08     -V/T= 2.0180

 **********************************************************************

            Population analysis using the SCF density.

 **********************************************************************

 Orbital symmetries:
       Occupied  (A) (A) (A) (A) (A) (A) (A) (A) (A) (A) (A) (A)
                 (A) (A) (A) (A) (A) (A) (A) (A) (A) (A) (A) (A)
                 (A) (A) (A) (A) (A) (A) (A) (A) (A) (A) (A) (A)
                 (A) (A) (A) (A) (A) (A) (A) (A) (A) (A) (A) (A)
                 (A) (A) (A) (A) (A) (A) (A) (A) (A) (A) (A) (A)
                 (A) (A) (A) (A) (A) (A) (A) (A) (A) (A) (A) (A)
                 (A) (A) (A) (A) (A) (A) (A) (A) (A) (A) (A) (A)
                 (A) (A) (A) (A) (A) (A) (A) (A) (A) (A) (A) (A)
                 (A) (A) (A) (A) (A) (A) (A) (A) (A) (A) (A) (A)
                 (A) (A) (A) (A) (A) (A) (A) (A) (A) (A) (A) (A)
                 (A) (A) (A) (A) (A) (A) (A) (A) (A) (A) (A) (A)
                 (A) (A) (A) (A) (A) (A) (A) (A) (A) (A) (A) (A)
                 (A) (A) (A) (A) (A) (A) (A) (A) (A) (A) (A) (A)
                 (A) (A) (A) (A) (A) (A) (A) (A) (A) (A) (A) (A)
                 (A) (A) (A) (A) (A) (A) (A) (A) (A) (A) (A) (A)
                 (A) (A) (A) (A) (A) (A) (A) (A) (A) (A) (A) (A)
                 (A) (A) (A) (A) (A) (A) (A) (A) (A)
       Virtual   (A) (A) (A) (A) (A) (A) (A) (A) (A) (A) (A) (A)
                 (A) (A) (A) (A) (A) (A) (A) (A) (A) (A) (A) (A)
                 (A) (A) (A) (A) (A) (A) (A) (A) (A) (A) (A) (A)
                 (A) (A) (A) (A) (A) (A) (A) (A) (A) (A) (A) (A)
                 (A) (A) (A) (A) (A) (A) (A) (A) (A) (A) (A) (A)
                 (A) (A) (A) (A) (A) (A) (A) (A) (A) (A) (A) (A)
                 (A) (A) (A) (A) (A) (A) (A) (A) (A) (A) (A) (A)
                 (A) (A) (A) (A) (A) (A) (A) (A) (A) (A) (A) (A)
                 (A) (A) (A) (A) (A) (A) (A) (A) (A) (A) (A) (A)
                 (A) (A) (A) (A) (A) (A) (A) (A) (A) (A) (A) (A)
                 (A) (A) (A) (A) (A) (A) (A) (A) (A) (A) (A) (A)
                 (A) (A) (A) (A) (A) (A) (A) (A) (A) (A) (A) (A)
                 (A) (A) (A) (A) (A) (A) (A) (A) (A) (A) (A) (A)
                 (A) (A) (A) (A) (A) (A) (A) (A) (A) (A) (A) (A)
                 (A) (A) (A) (A) (A) (A) (A) (A) (A) (A) (A) (A)
                 (A) (A) (A) (A) (A) (A) (A) (A) (A) (A) (A) (A)
                 (A) (A) (A) (A) (A) (A) (A) (A) (A) (A) (A) (A)
                 (A) (A) (A) (A) (A) (A) (A) (A) (A) (A) (A) (A)
                 (A) (A) (A) (A) (A) (A) (A) (A) (A) (A) (A) (A)
                 (A) (A) (A) (A) (A) (A) (A) (A) (A) (A) (A) (A)
                 (A) (A) (A) (A) (A) (A) (A) (A) (A) (A) (A) (A)
                 (A) (A) (A) (A) (A) (A) (A) (A) (A) (A) (A) (A)
                 (A) (A) (A) (A) (A) (A) (A) (A) (A) (A) (A) (A)
                 (A) (A) (A) (A) (A) (A) (A) (A) (A) (A) (A) (A)
                 (A) (A) (A) (A) (A) (A) (A) (A) (A) (A) (A) (A)
                 (A) (A) (A) (A) (A) (A) (A) (A) (A) (A) (A) (A)
                 (A) (A) (A) (A) (A) (A) (A) (A) (A) (A) (A) (A)
                 (A) (A) (A) (A) (A) (A) (A) (A) (A) (A) (A) (A)
                 (A) (A) (A) (A) (A) (A) (A) (A) (A) (A) (A) (A)
                 (A) (A) (A) (A) (A) (A) (A) (A) (A) (A) (A) (A)
                 (A) (A) (A) (A) (A) (A) (A) (A) (A) (A) (A) (A)
                 (A) (A) (A) (A) (A) (A) (A) (A) (A) (A) (A) (A)
                 (A) (A) (A) (A) (A) (A) (A) (A) (A) (A) (A) (A)
                 (A) (A) (A) (A) (A) (A) (A) (A) (A) (A) (A) (A)
                 (A) (A) (A) (A) (A) (A) (A) (A) (A) (A) (A) (A)
                 (A) (A) (A) (A) (A) (A) (A) (A) (A) (A) (A) (A)
                 (A) (A) (A) (A) (A) (A) (A) (A) (A) (A) (A) (A)
                 (A) (A) (A) (A) (A) (A) (A) (A) (A) (A) (A) (A)
                 (A) (A) (A) (A) (A) (A) (A) (A) (A) (A) (A) (A)
                 (A) (A) (A) (A) (A) (A) (A) (A) (A) (A) (A) (A)
                 (A) (A) (A) (A) (A) (A) (A) (A) (A) (A) (A) (A)
                 (A) (A) (A) (A) (A) (A) (A) (A) (A) (A) (A) (A)
                 (A) (A) (A) (A) (A) (A) (A) (A) (A) (A) (A) (A)
                 (A) (A) (A) (A) (A) (A) (A) (A) (A) (A) (A) (A)
                 (A) (A) (A) (A) (A) (A) (A) (A) (A) (A) (A) (A)
                 (A) (A) (A) (A) (A) (A) (A) (A) (A) (A) (A) (A)
                 (A) (A) (A) (A) (A) (A) (A) (A) (A) (A) (A)
 The electronic state is 1-A.
 Alpha  occ. eigenvalues -- -453.54792 -88.87198 -88.86138 -77.12837 -57.26709
 Alpha  occ. eigenvalues --  -52.04273 -52.04180 -52.03914 -19.21113 -19.19744
 Alpha  occ. eigenvalues --  -19.14137 -19.14083 -19.13151 -19.11910 -19.11796
 Alpha  occ. eigenvalues --  -19.10116 -14.37286 -14.37064 -14.35231 -14.34414
 Alpha  occ. eigenvalues --  -14.32548 -14.30756 -10.32330 -10.30708 -10.29484
 Alpha  occ. eigenvalues --  -10.28952 -10.28799 -10.27598 -10.25361 -10.24843
 Alpha  occ. eigenvalues --  -10.23900 -10.23516 -10.22640 -10.22604 -10.21824
 Alpha  occ. eigenvalues --  -10.21575 -10.21513 -10.21222 -10.20902 -10.20369
 Alpha  occ. eigenvalues --  -10.19979 -10.19979 -10.19036 -10.18667 -10.18638
 Alpha  occ. eigenvalues --  -10.18624 -10.18512 -10.18399  -7.94353  -7.93544
 Alpha  occ. eigenvalues --   -7.61723  -6.60770  -5.90764  -5.90445  -5.89974
 Alpha  occ. eigenvalues --   -5.89817  -5.89531  -5.89040  -5.74746  -5.74429
 Alpha  occ. eigenvalues --   -5.73450  -4.76900  -4.76870  -4.76748  -4.22918
 Alpha  occ. eigenvalues --   -2.36812  -2.36470  -2.34629  -2.10927  -2.10907
 Alpha  occ. eigenvalues --   -2.10095  -2.09841  -2.09653  -1.11693  -1.11482
 Alpha  occ. eigenvalues --   -1.05279  -1.03801  -1.03686  -1.02455  -1.01926
 Alpha  occ. eigenvalues --   -1.01675  -0.94784  -0.93153  -0.92177  -0.92172
 Alpha  occ. eigenvalues --   -0.91474  -0.88634  -0.85152  -0.82339  -0.79516
 Alpha  occ. eigenvalues --   -0.78160  -0.77445  -0.77201  -0.76886  -0.74890
 Alpha  occ. eigenvalues --   -0.74753  -0.74379  -0.72183  -0.71415  -0.70512
 Alpha  occ. eigenvalues --   -0.69104  -0.68426  -0.64817  -0.64684  -0.63798
 Alpha  occ. eigenvalues --   -0.62251  -0.62150  -0.61786  -0.61390  -0.60691
 Alpha  occ. eigenvalues --   -0.60047  -0.59129  -0.58068  -0.57849  -0.57253
 Alpha  occ. eigenvalues --   -0.55985  -0.53994  -0.52430  -0.51674  -0.51221
 Alpha  occ. eigenvalues --   -0.50621  -0.50352  -0.50216  -0.49810  -0.49447
 Alpha  occ. eigenvalues --   -0.48890  -0.48683  -0.48220  -0.47891  -0.47587
 Alpha  occ. eigenvalues --   -0.47301  -0.46866  -0.46635  -0.46406  -0.45599
 Alpha  occ. eigenvalues --   -0.45571  -0.44930  -0.44380  -0.44356  -0.44285
 Alpha  occ. eigenvalues --   -0.43977  -0.43824  -0.43431  -0.43139  -0.42304
 Alpha  occ. eigenvalues --   -0.41959  -0.41583  -0.41579  -0.41399  -0.41109
 Alpha  occ. eigenvalues --   -0.40907  -0.40756  -0.40577  -0.40337  -0.39899
 Alpha  occ. eigenvalues --   -0.39659  -0.39397  -0.39159  -0.38825  -0.38710
 Alpha  occ. eigenvalues --   -0.38409  -0.37828  -0.37755  -0.37574  -0.37423
 Alpha  occ. eigenvalues --   -0.37248  -0.37116  -0.36722  -0.36546  -0.36455
 Alpha  occ. eigenvalues --   -0.36059  -0.35561  -0.35368  -0.35025  -0.34347
 Alpha  occ. eigenvalues --   -0.33653  -0.33433  -0.32824  -0.32547  -0.32300
 Alpha  occ. eigenvalues --   -0.31446  -0.30880  -0.29124  -0.28638  -0.28480
 Alpha  occ. eigenvalues --   -0.28299  -0.27476  -0.27153  -0.26583  -0.26391
 Alpha  occ. eigenvalues --   -0.26066  -0.25645  -0.25541  -0.24958  -0.24500
 Alpha  occ. eigenvalues --   -0.24420  -0.24107  -0.23595  -0.23324  -0.20870
 Alpha  occ. eigenvalues --   -0.20512
 Alpha virt. eigenvalues --   -0.12644  -0.02726  -0.01349  -0.01029  -0.00957
 Alpha virt. eigenvalues --   -0.00101   0.00905   0.01199   0.01440   0.02014
 Alpha virt. eigenvalues --    0.02216   0.03064   0.03655   0.04573   0.05018
 Alpha virt. eigenvalues --    0.05280   0.05969   0.06947   0.07038   0.07228
 Alpha virt. eigenvalues --    0.08248   0.08797   0.08982   0.09369   0.09638
 Alpha virt. eigenvalues --    0.09875   0.10208   0.10965   0.11380   0.12139
 Alpha virt. eigenvalues --    0.12496   0.12799   0.13115   0.13236   0.13326
 Alpha virt. eigenvalues --    0.13912   0.14092   0.14468   0.14744   0.14926
 Alpha virt. eigenvalues --    0.15328   0.15684   0.16010   0.16222   0.16599
 Alpha virt. eigenvalues --    0.16735   0.17162   0.17270   0.17351   0.17693
 Alpha virt. eigenvalues --    0.17909   0.18142   0.18318   0.18402   0.18816
 Alpha virt. eigenvalues --    0.18864   0.19255   0.19512   0.19692   0.19933
 Alpha virt. eigenvalues --    0.20525   0.20717   0.20960   0.21124   0.21509
 Alpha virt. eigenvalues --    0.21740   0.21894   0.22136   0.22384   0.22887
 Alpha virt. eigenvalues --    0.23313   0.23670   0.23964   0.24163   0.25176
 Alpha virt. eigenvalues --    0.25333   0.25493   0.25757   0.26233   0.26861
 Alpha virt. eigenvalues --    0.27278   0.27392   0.28094   0.29739   0.30719
 Alpha virt. eigenvalues --    0.31032   0.32690   0.32982   0.33367   0.33991
 Alpha virt. eigenvalues --    0.34480   0.34640   0.35162   0.35924   0.36077
 Alpha virt. eigenvalues --    0.36852   0.36903   0.37773   0.37977   0.38495
 Alpha virt. eigenvalues --    0.39950   0.40452   0.40979   0.41456   0.41909
 Alpha virt. eigenvalues --    0.42043   0.42627   0.43211   0.43689   0.44290
 Alpha virt. eigenvalues --    0.45707   0.45881   0.46531   0.46651   0.46903
 Alpha virt. eigenvalues --    0.47864   0.48533   0.49913   0.50153   0.50720
 Alpha virt. eigenvalues --    0.50926   0.52084   0.52315   0.52536   0.52926
 Alpha virt. eigenvalues --    0.53209   0.53563   0.53761   0.54491   0.54760
 Alpha virt. eigenvalues --    0.54994   0.55253   0.55607   0.55853   0.56185
 Alpha virt. eigenvalues --    0.56620   0.57360   0.57502   0.57691   0.58255
 Alpha virt. eigenvalues --    0.58868   0.59131   0.59165   0.59417   0.59635
 Alpha virt. eigenvalues --    0.60144   0.60505   0.60633   0.60934   0.61244
 Alpha virt. eigenvalues --    0.61513   0.61898   0.62162   0.62271   0.62470
 Alpha virt. eigenvalues --    0.63167   0.63580   0.63915   0.64439   0.64797
 Alpha virt. eigenvalues --    0.65016   0.65586   0.66002   0.66259   0.66404
 Alpha virt. eigenvalues --    0.66856   0.67175   0.67354   0.67666   0.67878
 Alpha virt. eigenvalues --    0.68878   0.69154   0.69565   0.70234   0.70585
 Alpha virt. eigenvalues --    0.71210   0.71804   0.72295   0.72843   0.73265
 Alpha virt. eigenvalues --    0.73870   0.73923   0.74040   0.74619   0.75259
 Alpha virt. eigenvalues --    0.75671   0.76266   0.76462   0.77050   0.77284
 Alpha virt. eigenvalues --    0.77702   0.77963   0.78571   0.79199   0.79832
 Alpha virt. eigenvalues --    0.80162   0.80609   0.80881   0.81316   0.81878
 Alpha virt. eigenvalues --    0.82352   0.82554   0.82670   0.83215   0.83391
 Alpha virt. eigenvalues --    0.83675   0.84069   0.84631   0.84946   0.85042
 Alpha virt. eigenvalues --    0.85217   0.85575   0.85873   0.86149   0.86599
 Alpha virt. eigenvalues --    0.86732   0.87086   0.87179   0.87468   0.87758
 Alpha virt. eigenvalues --    0.88147   0.88231   0.88614   0.89071   0.89223
 Alpha virt. eigenvalues --    0.89263   0.89884   0.89924   0.90122   0.90265
 Alpha virt. eigenvalues --    0.90427   0.90800   0.91169   0.91456   0.91685
 Alpha virt. eigenvalues --    0.92294   0.92612   0.92977   0.93289   0.93480
 Alpha virt. eigenvalues --    0.93873   0.94393   0.94493   0.94742   0.95185
 Alpha virt. eigenvalues --    0.95313   0.95631   0.95816   0.95917   0.96768
 Alpha virt. eigenvalues --    0.96965   0.97356   0.97491   0.97944   0.98519
 Alpha virt. eigenvalues --    0.98789   0.99163   0.99317   1.00101   1.00620
 Alpha virt. eigenvalues --    1.00683   1.00953   1.01396   1.01553   1.02160
 Alpha virt. eigenvalues --    1.02311   1.02971   1.03137   1.03512   1.04120
[...]
 5116,0.00006392,-0.00010470,0.00002373,0.00056111,-0.00118008,-0.00004
 094,-0.00041323,0.00047132,-0.00022808,-0.00022353,-0.00032427,0.00011
 145,0.00020737,-0.00023118,-0.00061333,-0.00035411,0.00091703,0.000229
 02,-0.00009481,0.00035551,-0.00020536,0.00017491,-0.00090717,-0.000151
 12,0.00184967,-0.00042115,0.00090658,-0.00168932,-0.00010213,-0.000771
 55,-0.00086596,-0.00023898,-0.00042764,0.00014215,-0.00016770,0.000164
 21,0.00030279,0.00007225,-0.00003248,-0.00016263,-0.00005012,0.0000034
 5,-0.00023117,0.00001307,-0.00001619,-0.00004113,-0.00005426,0.0000492
 0,0.00005221,0.00002494,-0.00002297,0.00000229,-0.00023989,-0.00004798
 ,-0.00001641,0.00000700,0.00001893,0.00002634,0.00001000,-0.00001242,-
 0.00003931,0.00000332,-0.00002707,0.00001930,-0.00000325,0.00000684,-0
 .00000607,0.00001760,-0.00001199,0.00004829,-0.00000473,-0.00002737,0.
 00015229,0.00011920,0.00001487,0.00004658,0.00005084,0.00000219,-0.000
 00169,0.00006226,-0.00000403,-0.00014289,-0.00027755,0.00006735,-0.000
 33189,0.00032571,-0.00042972,-0.00055800,0.00031060,0.00041280,-0.0001
 6004,-0.00000921,0.00006332,0.00096790,-0.00030842,-0.00013103,-0.0000
 5589,0.00003293,-0.00004582,-0.00002245,0.00002029,-0.00001595,0.00006
 725,0.00012221,0.00002426,0.00002781,-0.00000245,0.00001215,-0.0000013
 9,-0.00000758,-0.00019231,-0.20538680,0.01632351,0.16050678,-0.0077005
 6,0.01829621,0.01419679,-0.08576026,0.03611811,0.00453863,-0.00095770,
 0.00257524,0.00342643,0.00820120,-0.01793238,0.00140540,-0.00022689,-0
 .00201163,0.00019045,-0.00011512,0.00089863,-0.00040727,0.00108573,0.0
 0229269,0.00432293,-0.00104448,-0.00052265,-0.00278727,0.00013714,0.00
 006629,-0.00031898,0.00082752,-0.00069021,0.00063659,0.32198664,-0.000
 45443,0.00005683,0.00080619,0.00070910,0.00075052,0.00063733,0.0000287
 4,-0.00014090,-0.00023727,-0.00019571,0.00006755,0.00000534,0.00007028
 ,0.00015278,0.00000957,-0.00103671,-0.00015850,-0.00091944,0.00013643,
 -0.00055169,-0.00039104,0.00047789,-0.00030499,0.00021800,-0.00041799,
 0.00012334,-0.00014135,0.00002411,0.00004771,0.00004869,0.00001703,-0.
 00003202,-0.00000624,-0.00010555,-0.00021682,-0.00002599,0.00004659,0.
 00000652,-0.00004353,0.00002233,-0.00016859,0.00010879,-0.00006021,0.0
 0005072,0.00004362,0.00013207,-0.00021406,0.00006052,-0.00006054,-0.00
 006121,-0.00006401,-0.00000721,0.00003561,0.00001452,-0.00003282,0.000
 02975,0.00000222,-0.00011165,-0.00001518,0.00006256,-0.00031163,-0.000
 45553,0.00029774,-0.00008682,-0.00009316,-0.00028529,0.00002452,-0.000
 00653,-0.00012253,-0.01432514,-0.00231149,0.02200766,-0.00011118,0.000
 11670,-0.00003914,-0.00000943,-0.00001807,-0.00002806,0.00010174,-0.00
 061302,0.00022107,-0.00001741,0.00028912,-0.00003631,0.00030254,-0.000
 07496,-0.00001145,-0.00072566,0.00071657,0.00005783,0.00001479,0.00041
 531,-0.00016900,-0.00004292,-0.00011346,-0.00007212,-0.00017827,-0.000
 44610,0.00100050,-0.00010974,0.00045450,-0.00051288,0.00056129,0.00046
 449,-0.00056819,0.00014324,-0.00007753,0.00017495,-0.00018567,-0.00038
 109,-0.00014290,0.00017515,0.00022240,-0.00000257,-0.00041131,-0.00035
 847,0.00000368,0.00028159,-0.00057781,-0.00053058,0.00026803,0.0004725
 3,-0.00019840,-0.00021453,0.00028547,-0.00000605,-0.00020469,-0.000305
 34,0.00029180,0.00089059,-0.00098418,0.00059080,-0.00076076,0.00047495
 ,-0.00067831,-0.00030529,0.00017965,-0.00021277,0.00007508,-0.00002581
 ,0.00002681,-0.00001590,-0.00017548,0.00008654,0.00000715,0.00014689,-
 0.00007503,-0.00004744,0.00006003,-0.00002335,0.00001114,0.00003321,-0
 .00014609,0.00010221,-0.00000722,0.00007410,0.00005676,-0.00047604,-0.
 00000288,-0.00003832,0.00000837,0.00003397,0.00006613,-0.00005942,0.00
 003888,-0.00002558,-0.00001076,0.00000774,0.00004061,0.00001069,-0.000
 01643,-0.00001000,0.00003321,0.00001282,-0.00006627,-0.00000977,0.0000
 5014,0.00022029,0.00012762,-0.00000755,0.00003638,0.00011774,-0.000006
 62,0.00004845,0.00005829,-0.00005555,-0.00035653,-0.00025839,0.0002278
 0,0.00010680,0.00011023,-0.00008979,0.00018856,-0.00050383,0.00013234,
 -0.00002412,0.00000248,-0.00000350,0.00024405,-0.00056361,0.00024201,-
 0.00002518,-0.00000873,-0.00002698,-0.00004783,-0.00002339,0.00002146,
 0.00006973,-0.00000785,0.00004020,0.00000455,-0.00001241,0.00000391,-0
 .00019618,0.00020725,-0.00004978,-0.01155194,-0.08959363,0.02895764,0.
 04236993,-0.04389928,-0.01180957,0.05636345,-0.21136442,0.03747060,0.0
 0418438,-0.00168467,-0.00186419,-0.00346183,-0.01988994,0.01958114,0.0
 0456722,-0.00249166,-0.00469962,0.00048096,-0.00154505,0.00061821,-0.0
 0470362,0.01131116,0.00180417,-0.00097493,0.00001688,-0.00142369,0.000
 06627,-0.00016146,0.00000023,0.00030223,-0.00006781,0.00032231,-0.0993
 5869,0.38356605,0.00120362,-0.00205964,-0.00159607,-0.00047554,0.00107
 062,-0.00376307,0.00029306,0.00021490,0.00057644,0.00020127,-0.0000540
 6,0.00018939,-0.00049761,-0.00044368,0.00021959,-0.00063611,0.00053303
 ,-0.00105755,-0.00007311,-0.00125723,-0.00003078,0.00151397,-0.0010741
 9,0.00073624,0.00025112,-0.00029860,0.00100955,-0.00008332,0.00002424,
 -0.00017240,-0.00003152,-0.00028668,-0.00005917,-0.00017984,0.00029163
 ,0.00026515,0.00023177,0.00009910,0.00024407,0.00016701,-0.00009125,-0
 .00061848,-0.00009289,-0.00021366,-0.00002292,0.00001170,0.00021246,-0
 .00023756,0.00003915,-0.00000392,0.00013048,-0.00000664,0.00002592,0.0
 0016979,0.00001129,0.00000199,0.00000726,0.00071833,-0.00076389,0.0004
 4907,-0.00114057,0.00067885,-0.00010565,-0.00017762,0.00002866,0.00012
 902,-0.00027681,-0.00046888,-0.00049426,0.01492815,0.01650560,-0.02844
 017,0.00021985,-0.00009709,0.00000931,0.00001915,0.00009154,0.00001827
 ,-0.00021360,0.00052688,-0.00044568,0.00010250,-0.00021114,0.00024666,
 -0.00060431,-0.00043357,0.00004930,0.00150658,-0.00019671,-0.00007111,
 0.00002670,-0.00034801,0.00023609,0.00002099,0.00008576,0.00006551,-0.
 00012388,0.00065898,-0.00157616,0.00067067,-0.00063869,0.00079923,-0.0
 0070961,-0.00077533,0.00096166,-0.00022624,0.00017757,-0.00044919,0.00
 022895,0.00028128,0.00013156,-0.00013560,-0.00016067,0.00014288,0.0003
 7163,0.00086388,0.00018388,-0.00083143,0.00077420,0.00108303,-0.000365
 72,-0.00041905,0.00043240,0.00025195,-0.00025014,-0.00035791,0.0005421
 4,-0.00010268,-0.00042413,-0.00064524,0.00102227,-0.00058501,0.0003759
 5,-0.00062990,0.00083631,0.00020434,-0.00019586,0.00023735,-0.00005057
 ,-0.00001655,-0.00004516,0.00006514,0.00018690,-0.00013922,-0.00003498
 ,-0.00015480,0.00011829,0.00001486,-0.00005222,0.00004594,0.00002631,0
 .00000252,0.00011181,-0.00005648,0.00004915,-0.00008790,-0.00046228,0.
 00053318,0.00012376,0.00002410,-0.00000057,-0.00001597,-0.00007209,0.0
 0005275,-0.00004462,0.00005131,0.00001671,-0.00000376,-0.00004666,-0.0
 0000608,0.00002699,0.00003762,-0.00003783,-0.00000831,0.00007246,0.000
 01773,-0.00007643,-0.00038349,-0.00021248,-0.00004316,0.00003155,-0.00
 021518,0.00002761,-0.00001620,-0.00007228,0.00011134,0.00020985,0.0005
 6844,-0.00041292,-0.00020271,-0.00001198,-0.00001887,-0.00062648,0.000
 52492,-0.00044093,-0.00004251,-0.00001346,0.00010486,-0.00021424,0.000
 46831,-0.00066480,0.00002378,0.00001644,0.00003332,0.00004548,0.000027
 57,-0.00004668,-0.00004901,0.00000148,-0.00009226,-0.00000568,0.000004
 25,-0.00002051,0.00031810,0.00018846,0.00027678,0.17829681,-0.00929986
 ,-0.30072177,-0.00274032,0.02093283,0.00280509,-0.01110699,0.06673970,
 -0.09446636,0.00228432,0.00003286,0.00033079,-0.00952024,0.03649243,-0
 .01706998,-0.00474659,0.00372972,0.00164938,-0.00010080,0.00011378,0.0
 0016026,0.00936801,-0.00672452,-0.00049665,-0.00234335,-0.00218658,0.0
 0080086,-0.00031496,-0.00002426,0.00033636,-0.00012324,0.00161428,-0.0
 0014081,-0.22821082,-0.09115121,0.45335084,-0.00001375,-0.00111454,0.0
 0093502,-0.00081483,-0.00035778,0.00060941,-0.00036884,-0.00010129,-0.
 00016465,0.00018917,-0.00021268,0.00002546,0.00001536,-0.00010061,-0.0
 0000398,0.00040728,-0.00008909,0.00019490,0.00003692,0.00029627,0.0001
 0932,-0.00081586,0.00005920,-0.00023846,0.00036116,-0.00002120,-0.0000
 2020,0.00000514,-0.00007741,-0.00000932,-0.00001359,0.00007839,0.00001
 014,0.00065674,0.00075269,0.00043568,-0.00010427,-0.00014295,-0.000083
 00,-0.00043594,0.00046021,-0.00015137,0.00005364,-0.00012604,-0.000036
 11,-0.00010678,0.00012487,0.00002211,0.00003884,0.00003617,0.00002515,
 -0.00000087,-0.00002253,-0.00004057,0.00003656,-0.00000446,0.00000082,
 -0.00029924,0.00008937,-0.00021941,0.00048667,-0.00031055,-0.00020642,
 0.00007631,-0.00000005,0.00000649,0.00012152,0.00015003,0.00012485,0.0
 0329563,0.00515431,-0.00506372,-0.00007457,-0.00004696,0.00006601,0.00
 001591,-0.00001984,-0.00002524,0.00007086,0.00002102,0.00008867,-0.000
 07531,-0.00003291,-0.00005134,0.00029438,0.00034700,-0.00008182,-0.000
 57878,-0.00016833,0.00014266,-0.00007050,-0.00001898,0.00001313,0.0000
 2265,-0.00001372,-0.00002300,0.00015938,-0.00004852,0.00000710,-0.0001
 5722,0.00010190,0.00002507,-0.00003270,0.00012514,0.00000912,0.0000343
 3,-0.00005264,0.00003541,0.00025721,-0.00028216,0.00003074,-0.00021549
 ,0.00008678,-0.00012349,0.00000558,-0.00008536,-0.00002399,0.00025911,
 -0.00003683,-0.00027706,-0.00016794,0.00016825,0.00002315,0.00002094,0
 .00004731,0.00008713,-0.00001456,0.00004857,-0.00019373,0.00043665,0.0
 0008390,0.00021767,-0.00032310,-0.00014520,-0.00026492,-0.00023153,-0.
 00014432,-0.00012295,0.00003616,-0.00004523,0.00007450,0.00013335,0.00
 006263,-0.00000605,-0.00006924,-0.00005087,-0.00000313,-0.00008803,-0.
 00000798,-0.00001405,-0.00001477,-0.00003132,0.00001816,0.00000269,-0.
 00000654,0.00000140,0.00013538,-0.00010483,-0.00006461,-0.00000037,0.0
 0000087,-0.00000259,0.00000768,0.00001885,-0.00001035,-0.00002824,0.00
 000420,-0.00002024,0.00000332,-0.00000937,0.00000344,-0.00000766,0.000
 00345,-0.00001290,0.00003998,0.00000219,-0.00001450,0.00002012,0.00001
 097,0.00001410,-0.00000405,-0.00000105,0.00000023,-0.00002063,0.000010
 43,-0.00000301,0.00005027,-0.00014413,0.00000302,-0.00006248,0.0000070
 3,-0.00006426,0.00012696,0.00015398,0.00048848,-0.00001248,-0.00000256
 ,-0.00001553,0.00035304,-0.00010379,0.00002129,-0.00001526,0.00001272,
 -0.00001578,0.00000355,0.00001291,-0.00000029,0.00000591,0.00005318,0.
 00002478,0.00001572,0.00000491,0.00001248,0.00004592,-0.00010948,0.000
 12436,-0.11698482,0.04366060,0.03352699,-0.09641610,0.00471268,0.05054
 364,-0.01585612,0.01062939,0.02452916,0.01038881,-0.00305390,-0.013188
 41,-0.00096611,0.00036464,0.00642484,0.00432108,0.00460840,-0.00149891
 ,-0.00138400,-0.00257904,-0.00106121,-0.00337874,0.00393600,-0.0004377
 3,-0.00010138,-0.00073562,0.00086484,0.00123110,0.00083525,-0.00043534
 ,-0.00001114,-0.00029373,-0.00007327,-0.02937178,0.02734726,0.05401632
 ,0.24543009,-0.00163929,0.00059251,0.00283808,0.00146561,0.00063459,0.
 00146959,-0.00012251,-0.00028240,-0.00033490,-0.00021001,0.00007789,-0
 .00005917,0.00014930,0.00015752,-0.00011781,-0.00042986,-0.00020630,-0
 .00032189,-0.00002182,-0.00009755,-0.00019081,0.00046340,-0.00012553,0
 .00034672,-0.00042287,0.00011520,-0.00035362,0.00006709,0.00009400,0.0
 0012165,0.00002107,0.00002175,-0.00000410,0.00014033,-0.00023275,0.000
 11012,-0.00000395,-0.00001911,-0.00009173,-0.00026364,-0.00017514,0.00
 005109,-0.00006769,0.00011632,0.00003589,0.00010523,-0.00020531,0.0001
 2060,-0.00005466,-0.00006397,-0.00008352,0.00000778,0.00003250,-0.0000
 1768,-0.00005662,0.00002115,-0.00000763,0.00018428,0.00003985,0.000146
 57,-0.00034507,0.00006999,0.00030180,-0.00006438,-0.00003949,-0.000221
 39,-0.00005952,-0.00002293,-0.00004007,0.01488297,-0.02832355,0.002196
 88,-0.00003621,0.00020458,-0.00015333,-0.00004091,0.00001760,-0.000002
 65,0.00003300,-0.00067201,0.00019552,0.00006828,0.00034131,-0.00004650
 ,-0.00007448,-0.00060574,0.00015597,0.00003169,0.00091143,-0.00034059,
 0.00010924,0.00046223,-0.00023665,-0.00007735,-0.00009098,-0.00003844,
 -0.00032036,-0.00049523,0.00135958,-0.00013480,0.00039224,-0.00074188,
 0.00073470,0.00046310,-0.00082383,0.00014198,-0.00007106,0.00023296,-0
 .00062764,0.00008950,-0.00021525,0.00053105,0.00006705,0.00017006,-0.0
 0046750,-0.00067972,-0.00012603,0.00078996,-0.00080565,-0.00131193,0.0
 0054911,0.00017377,-0.00032401,-0.00025379,0.00010359,-0.00004884,-0.0
 0022766,-0.00010155,0.00047249,-0.00013790,-0.00113858,0.00017476,0.00
 008160,0.00104729,-0.00024821,0.00014971,0.00043280,-0.00000142,0.0000
 1893,0.00006593,-0.00009012,-0.00023518,-0.00031300,0.00013253,0.00012
 305,0.00025498,-0.00009904,0.00009153,0.00008229,-0.00001514,0.0000416
 3,0.00009692,-0.00021898,0.00008332,-0.00002324,0.00009616,0.00005770,
 -0.00034324,0.00004024,-0.00003568,0.00000575,0.00003517,0.00007072,-0
 .00010063,0.00006548,0.00001228,-0.00001530,0.00004006,0.00004216,0.00
 002455,-0.00002758,-0.00001098,0.00003318,0.00003210,-0.00013783,-0.00
 001775,0.00008692,0.00035237,0.00019311,0.00004052,0.00003886,0.000232
 26,0.00001096,0.00007016,0.00006232,-0.00008572,-0.00036167,-0.0002033
 5,0.00032880,0.00033975,0.00004787,0.00010392,-0.00010455,-0.00044818,
 -0.00064182,0.00004987,0.00002037,-0.00004216,-0.00055864,-0.00014267,
 0.00038378,0.00000135,-0.00003327,-0.00000470,-0.00005444,-0.00004728,
 0.00003286,0.00006055,-0.00010802,0.00002002,-0.00001549,-0.00001931,-
 0.00000831,0.00005630,0.00022190,-0.00010808,0.06977286,-0.14878552,-0
 .02586672,-0.02014370,-0.11651299,0.07192302,-0.00981924,-0.01317239,0
 .03125439,-0.01683604,-0.01833077,0.03454876,0.00186986,0.00395372,-0.
 00220376,0.00491272,-0.00023151,-0.00217999,-0.00153084,0.00224788,-0.
 00240983,-0.00149794,-0.00317895,0.00368675,-0.00007839,-0.00038548,0.
 00056631,-0.00051070,-0.00066984,0.00222066,-0.00033839,0.00022994,0.0
 0003022,0.05328431,-0.01970179,-0.03482940,-0.09362748,0.34278629,0.00
 146355,0.00095138,-0.00321268,-0.00052864,-0.00026943,-0.00119147,0.00
 004081,-0.00004089,0.00028677,0.00006194,-0.00001064,-0.00001094,-0.00
 012591,-0.00007290,0.00001040,0.00026417,0.00014062,0.00016321,-0.0000
 6701,-0.00009600,0.00012398,0.00014549,0.00019184,-0.00009465,0.000100
 47,-0.00006469,0.00027295,-0.00005569,-0.00002626,-0.00009520,-0.00001
 982,-0.00006454,-0.00000588,-0.00005344,-0.00003502,0.00002803,0.00003
 545,0.00005138,0.00008428,0.00004557,-0.00011907,-0.00029457,-0.000000
 33,-0.00006348,-0.00001156,-0.00000948,0.00007343,-0.00009574,0.000017
 47,0.00001616,0.00004056,0.00000068,-0.00000481,0.00004028,0.00002376,
 -0.00000480,0.00001270,0.00022217,-0.00005699,0.00006339,-0.00012782,0
 .00023753,-0.00002921,-0.00001307,0.00002420,0.00014830,-0.00008338,-0
 .00012571,-0.00008832,-0.01243197,0.01863747,0.00645378,0.00012448,-0.
 00008227,0.00001915,0.00000424,0.00001189,0.00003744,-0.00011973,0.000
 47425,-0.00024490,0.00005310,-0.00021031,0.00008381,-0.00034499,-0.000
 02663,0.00000494,0.00070689,-0.00046677,-0.00000694,0.00001818,-0.0003
 2077,0.00014556,0.00002697,0.00009370,0.00006561,0.00004503,0.00042315
 ,-0.00097075,0.00025965,-0.00042329,0.00049363,-0.00049610,-0.00051757
 ,0.00056463,-0.00014938,0.00012106,-0.00018992,0.00004542,0.00048584,0
 .00016207,-0.00004504,-0.00022481,0.00003605,0.00039598,0.00059513,0.0
 0008465,-0.00083531,0.00077760,0.00137053,-0.00013440,-0.00045170,0.00
 014224,0.00017559,-0.00015632,-0.00000567,-0.00000727,0.00021449,-0.00
 027774,-0.00070355,0.00068171,-0.00055154,0.00062237,-0.00041107,0.000
 71200,0.00032365,-0.00005969,0.00024522,-0.00006156,0.00003240,-0.0000
 5689,-0.00002144,0.00011025,-0.00007494,0.00001219,-0.00009195,0.00007
 159,0.00005947,-0.00003954,0.00002838,-0.00000774,-0.00002398,0.000127
 53,-0.00007426,0.00001276,-0.00006398,-0.00015883,0.00040946,0.0000362
 6,0.00002917,-0.00000507,-0.00002471,-0.00006018,0.00004377,-0.0000317
 8,0.00002907,0.00000606,-0.00000171,-0.00003665,-0.00000649,0.00001439
 ,0.00001628,-0.00002946,-0.00000625,0.00004060,0.00000887,-0.00003736,
 -0.00028617,-0.00018221,-0.00005950,-0.00004890,-0.00016610,-0.0000120
 9,-0.00002798,-0.00006678,0.00006149,0.00023624,0.00034368,-0.00024650
 ,0.00004849,-0.00013684,0.00017687,-0.00001081,-0.00004577,-0.00024232
 ,0.00000981,-0.00000759,0.00001905,-0.00018212,0.00032522,-0.00023213,
 0.00002704,-0.00000116,0.00002781,0.00003217,0.00001420,-0.00001894,-0
 .00004355,-0.00001829,-0.00006313,-0.00000754,0.00000534,-0.00001290,0
 .00046101,-0.00039586,0.00009385,0.01541162,0.00317069,-0.09024111,0.0
 6943587,0.04279573,-0.17411180,0.03937465,0.00320571,-0.04530523,-0.00
 286360,0.01599908,-0.01058722,0.00555653,-0.00035942,-0.00194409,-0.00
 193997,-0.00130912,0.00926260,-0.00181041,-0.00108563,-0.00048956,0.00
 362156,-0.00374897,-0.00353783,0.00029770,0.00129545,-0.00150905,0.000
 59079,0.00045840,0.00028027,-0.00000477,0.00005066,-0.00014738,0.03305
 585,0.00048085,-0.01440945,-0.14957033,-0.08084473,0.32874931\\-0.0000
 0270,0.00001069,0.00000753,-0.00000202,-0.00000141,-0.00001532,-0.0000
 0019,0.00000168,-0.00000093,-0.00000313,0.00000415,-0.00000255,-0.0000
 0272,0.00000689,-0.00000359,-0.00000242,-0.00000855,-0.00000357,0.0000
 0549,-0.00000056,-0.00000167,0.00000426,0.00000150,-0.00000153,0.00000
 094,-0.00000005,0.00000738,-0.00000031,-0.00000101,0.00000296,-0.00000
 336,0.00000268,0.00000167,-0.00000105,0.00000229,-0.00000439,-0.000001
 20,0.00000090,-0.00000403,-0.00000090,0.00000235,-0.00000622,-0.000004
 37,0.00000340,-0.00000828,-0.00000072,0.00000130,0.00000031,0.00000006
 ,-0.00000143,0.00000273,0.00000141,-0.00000078,0.00000064,-0.00000090,
 0.00000030,-0.00000028,-0.00000040,0.00000272,-0.00000567,0.00000074,-
 0.00000265,0.00000159,0.00000392,-0.00000503,0.00000037,0.00000323,-0.
 00000344,0.00000122,-0.00000035,0.00000664,0.00000027,0.00000400,-0.00
 000826,0.00000127,0.00000956,-0.00000334,0.00000030,-0.00001535,-0.000
 00200,0.00001313,0.00000661,-0.00000517,-0.00000670,-0.00000126,-0.000
 01072,-0.00000123,0.00000424,0.00000048,0.00000194,0.00000803,0.000000
 99,0.00000392,0.00000233,-0.00001327,0.00000492,-0.00000127,0.00001233
 ,0.00001007,0.00000562,-0.00001305,0.00000479,0.00000608,-0.00000168,-
 0.00000346,0.00000211,0.,0.00000301,-0.00000704,-0.00000598,0.00001249
 ,-0.00000305,0.00000372,0.00000222,-0.00000239,-0.00000008,0.00001213,
 -0.00000156,-0.00000309,0.00000432,0.00000094,0.00000342,-0.00000254,-
 0.00000292,0.00000005,0.00000379,-0.00000497,0.00000724,0.00000562,-0.
 00000239,0.00000534,-0.00000726,0.,-0.00000120,-0.00000127,-0.00000614
 ,0.00000239,0.00000258,0.00000348,-0.00000209,-0.00000538,-0.00000083,
 0.00000031,0.00001028,-0.00000117,0.00000214,-0.00000133,-0.00000181,-
 0.00000026,0.00000187,0.00000573,-0.00000505,-0.00000198,0.00000167,-0
 .00000361,0.00000084,0.00000415,-0.00000063,-0.00000072,0.00000274,-0.
 00000435,0.00000333,0.00000424,-0.00000259,0.00000134,0.00000606,-0.00
 000499,0.00000289,0.00000399,-0.00000576,0.00000758,0.00000260,-0.0000
 0318,0.00000789,-0.00000079,-0.00000182,0.00000496,-0.00000461,0.00000
 245,0.00000841,-0.00000416,0.00000189,0.00000248,-0.00000219,-0.000000
 20,0.00000564,0.00000136,-0.00000301,0.00000750,-0.00000591,0.00000727
 ,-0.00000526,-0.00000093,0.00000517,-0.00000187,-0.00000473,0.00000358
 ,0.00000238,-0.00000105,0.00000047,0.00000425,-0.00000228,0.00000703,0
 .00000375,-0.00000371,0.00000236,0.00000769,0.00000046,0.00000181,0.00
 000104,-0.00000180,0.00000084,0.00000489,-0.00001175,0.00000010,-0.000
 00235,-0.00000045,-0.00000564,-0.00000794,-0.00001126,-0.00000453,-0.0
 0001138,0.00000873,0.00000569,-0.00000170,-0.00000064,-0.00000025,-0.0
 0001232,0.00000426,-0.00000466,-0.00000441,0.00000412,-0.00000073,-0.0
 0001271,0.00000099,0.00000354,-0.00001158,0.00000034,0.00000287,-0.000
 00886,0.00000305,-0.00000076,-0.00000369,0.00000386,-0.00000013,-0.000
 01139,0.00000397,-0.00000267,-0.00000889,-0.00000344,0.00000456,-0.000
 00574,0.00000321,0.00001411,-0.00000217\\\@


 SI MONUMENTUM REQUIRIS, CIRCUMSPICE
     -- FROM SIR CHRISTOPHER WREN'S TOMBSTONE
 Job cpu time:       0 days 19 hours  4 minutes  0.6 seconds.
 File lengths (MBytes):  RWF=   6078 Int=      0 D2E=      0 Chk=     47 Scr=      1
 Normal termination of Gaussian 09 at Thu May  4 10:24:35 2023.
