 Entering Gaussian System, Link 0=g09
 Input=AF25-helio.com
 Output=AF25-helio.log
 Initial command:
 /home/scr/programs/g09/l1.exe "/home/scr/guest2/Gau-18449.inp" -scrdir="/home/scr/guest2/"
 Entering Link 1 = /home/scr/programs/g09/l1.exe PID=     18450.
  
 Copyright (c) 1988,1990,1992,1993,1995,1998,2003,2009,2013,
            Gaussian, Inc.  All Rights Reserved.
  
 This is part of the Gaussian(R) 09 program.  It is based on
 the Gaussian(R) 03 system (copyright 2003, Gaussian, Inc.),
 the Gaussian(R) 98 system (copyright 1998, Gaussian, Inc.),
 the Gaussian(R) 94 system (copyright 1995, Gaussian, Inc.),
 the Gaussian 92(TM) system (copyright 1992, Gaussian, Inc.),
 the Gaussian 90(TM) system (copyright 1990, Gaussian, Inc.),
 the Gaussian 88(TM) system (copyright 1988, Gaussian, Inc.),
 the Gaussian 86(TM) system (copyright 1986, Carnegie Mellon
 University), and the Gaussian 82(TM) system (copyright 1983,
 Carnegie Mellon University). Gaussian is a federally registered
 trademark of Gaussian, Inc.
  
 This software contains proprietary and confidential information,
 including trade secrets, belonging to Gaussian, Inc.
  
 This software is provided under written license and may be
 used, copied, transmitted, or stored only in accord with that
 written license.
  
 The following legend is applicable only to US Government
 contracts under FAR:
  
                    RESTRICTED RIGHTS LEGEND
  
 Use, reproduction and disclosure by the US Government is
 subject to restrictions as set forth in subparagraphs (a)
 and (c) of the Commercial Computer Software - Restricted
 Rights clause in FAR 52.227-19.
  
 Gaussian, Inc.
 340 Quinnipiac St., Bldg. 40, Wallingford CT 06492
  
  
 ---------------------------------------------------------------
 Warning -- This program may not be used in any manner that
 competes with the business of Gaussian, Inc. or will provide
 assistance to any competitor of Gaussian, Inc.  The licensee
 of this program is prohibited from giving any competitor of
 Gaussian, Inc. access to this program.  By using this program,
 the user acknowledges that Gaussian, Inc. is engaged in the
 business of creating and licensing software in the field of
 computational chemistry and represents and warrants to the
 licensee that it is not a competitor of Gaussian, Inc. and that
 it will not use this program in any manner prohibited above.
 ---------------------------------------------------------------
  

 Cite this work as:
 Gaussian 09, Revision D.01,
 M. J. Frisch, G. W. Trucks, H. B. Schlegel, G. E. Scuseria, 
 M. A. Robb, J. R. Cheeseman, G. Scalmani, V. Barone, B. Mennucci, 
 G. A. Petersson, H. Nakatsuji, M. Caricato, X. Li, H. P. Hratchian, 
 A. F. Izmaylov, J. Bloino, G. Zheng, J. L. Sonnenberg, M. Hada, 
 M. Ehara, K. Toyota, R. Fukuda, J. Hasegawa, M. Ishida, T. Nakajima, 
 Y. Honda, O. Kitao, H. Nakai, T. Vreven, J. A. Montgomery, Jr., 
 J. E. Peralta, F. Ogliaro, M. Bearpark, J. J. Heyd, E. Brothers, 
 K. N. Kudin, V. N. Staroverov, T. Keith, R. Kobayashi, J. Normand, 
 K. Raghavachari, A. Rendell, J. C. Burant, S. S. Iyengar, J. Tomasi, 
 M. Cossi, N. Rega, J. M. Millam, M. Klene, J. E. Knox, J. B. Cross, 
 V. Bakken, C. Adamo, J. Jaramillo, R. Gomperts, R. E. Stratmann, 
 O. Yazyev, A. J. Austin, R. Cammi, C. Pomelli, J. W. Ochterski, 
 R. L. Martin, K. Morokuma, V. G. Zakrzewski, G. A. Voth, 
 P. Salvador, J. J. Dannenberg, S. Dapprich, A. D. Daniels, 
 O. Farkas, J. B. Foresman, J. V. Ortiz, J. Cioslowski, 
 and D. J. Fox, Gaussian, Inc., Wallingford CT, 2013.
 
 ******************************************
 Gaussian 09:  EM64L-G09RevD.01 24-Apr-2013
                 2-May-2023 
 ******************************************
 %mem=30000MB
 %nprocshared=8
 Will use up to    8 processors via shared memory.
 ----------------------------------------
 # opt freq=noraman b3lyp/gen pseudo=read
 ----------------------------------------
 1/14=-1,18=20,19=15,26=3,38=1/1,3;
 2/9=110,12=2,17=6,18=5,40=1/2;
 3/5=7,11=2,16=1,17=8,25=1,30=1,71=1,74=-5/1,2,3;
 4//1;
 5/5=2,38=5/2;
 6/7=2,8=2,9=2,10=2,28=1/1;
 7//1,2,3,16;
 1/14=-1,18=20,19=15,26=3/3(2);
 2/9=110/2;
 99//99;
 2/9=110/2;
 3/5=7,6=1,11=2,16=1,17=8,25=1,30=1,71=1,74=-5,82=7/1,2,3;
 4/5=5,16=3,69=1/1;
 5/5=2,38=5/2;
 7//1,2,3,16;
 1/14=-1,18=20,19=15,26=3/3(-5);
 2/9=110/2;
 6/7=2,8=2,9=2,10=2,19=2,28=1/1;
 99/9=1/99;
 -------------------
 Title Card Required
 -------------------
 Symbolic Z-matrix:
 Charge =  0 Multiplicity = 1
 Au                    0.76671  -0.6676    0.01884 
 S                    -1.08073  -2.12325   0.0056 
 P                     2.63169   0.6647    0.03378 
 C                     2.61804   1.92738   1.3566 
 C                     2.35883   1.36048   2.74976 
 H                     1.83719   2.64581   1.08219 
 H                     3.57562   2.45929   1.32482 
 H                     2.32772   2.17222   3.48292 
 H                     1.40238   0.82921   2.78912 
 H                     3.14575   0.6661    3.05948 
 C                     4.17489  -0.28291   0.28737 
 C                     4.41858  -1.3548   -0.77096 
 H                     4.09284  -0.7381    1.28019 
 H                     5.00682   0.42984   0.32938 
 H                     5.32916  -1.91386  -0.53533 
 H                     3.5863   -2.06487  -0.81369 
 H                     4.54526  -0.9207   -1.76768 
 C                     2.82754   1.58902  -1.53455 
 C                     4.05864   2.48359  -1.64885 
 H                     1.90652   2.1725   -1.64668 
 H                     2.81104   0.83944  -2.33336 
 H                     4.06295   2.97814  -2.62524 
 H                     4.0685    3.26484  -0.88348 
 H                     4.98857   1.91305  -1.56591 
 C                    -2.46602  -1.10156  -0.03493 
 C                    -4.44716  -0.3187   -0.07487 
 C                    -3.56341   0.76354  -0.10069 
 C                    -5.82126  -0.08805  -0.09296 
 C                    -3.95791   2.08617  -0.14445 
 C                    -6.24664   1.23839  -0.13674 
 H                    -6.52977  -0.91022  -0.07348 
 C                    -5.33712   2.30448  -0.16219 
 H                    -3.24437   2.90284  -0.16387 
 H                    -7.31096   1.45405  -0.15181 
 H                    -5.71116   3.32309  -0.19647 
 N                    -3.70921  -1.49323  -0.03294 
 O                    -2.29773   0.25619  -0.07507 
 

 GradGradGradGradGradGradGradGradGradGradGradGradGradGradGradGradGradGrad
 Berny optimization.
 Initialization pass.
                           ----------------------------
                           !    Initial Parameters    !
                           ! (Angstroms and Degrees)  !
 --------------------------                            --------------------------
 ! Name  Definition              Value          Derivative Info.                !
 --------------------------------------------------------------------------------
 ! R1    R(1,2)                  2.352          estimate D2E/DX2                !
 ! R2    R(1,3)                  2.292          estimate D2E/DX2                !
 ! R3    R(2,25)                 1.7218         estimate D2E/DX2                !
 ! R4    R(3,4)                  1.8288         estimate D2E/DX2                !
 ! R5    R(3,11)                 1.8286         estimate D2E/DX2                !
 ! R6    R(3,18)                 1.8309         estimate D2E/DX2                !
 ! R7    R(4,5)                  1.5263         estimate D2E/DX2                !
 ! R8    R(4,6)                  1.096          estimate D2E/DX2                !
 ! R9    R(4,7)                  1.0959         estimate D2E/DX2                !
 ! R10   R(5,8)                  1.0943         estimate D2E/DX2                !
 ! R11   R(5,9)                  1.0948         estimate D2E/DX2                !
 ! R12   R(5,10)                 1.0942         estimate D2E/DX2                !
 ! R13   R(11,12)                1.5259         estimate D2E/DX2                !
 ! R14   R(11,13)                1.0953         estimate D2E/DX2                !
 ! R15   R(11,14)                1.0963         estimate D2E/DX2                !
 ! R16   R(12,15)                1.0942         estimate D2E/DX2                !
 ! R17   R(12,16)                1.0949         estimate D2E/DX2                !
 ! R18   R(12,17)                1.0945         estimate D2E/DX2                !
 ! R19   R(18,19)                1.5261         estimate D2E/DX2                !
 ! R20   R(18,20)                1.096          estimate D2E/DX2                !
 ! R21   R(18,21)                1.0956         estimate D2E/DX2                !
 ! R22   R(19,22)                1.0945         estimate D2E/DX2                !
 ! R23   R(19,23)                1.0937         estimate D2E/DX2                !
 ! R24   R(19,24)                1.0942         estimate D2E/DX2                !
 ! R25   R(25,36)                1.3034         estimate D2E/DX2                !
 ! R26   R(25,37)                1.3687         estimate D2E/DX2                !
 ! R27   R(26,27)                1.3975         estimate D2E/DX2                !
 ! R28   R(26,28)                1.3934         estimate D2E/DX2                !
 ! R29   R(26,36)                1.3878         estimate D2E/DX2                !
 ! R30   R(27,29)                1.3809         estimate D2E/DX2                !
 ! R31   R(27,37)                1.3638         estimate D2E/DX2                !
 ! R32   R(28,30)                1.3937         estimate D2E/DX2                !
 ! R33   R(28,31)                1.0855         estimate D2E/DX2                !
 ! R34   R(29,32)                1.3965         estimate D2E/DX2                !
 ! R35   R(29,33)                1.0846         estimate D2E/DX2                !
 ! R36   R(30,32)                1.4016         estimate D2E/DX2                !
 ! R37   R(30,34)                1.0861         estimate D2E/DX2                !
 ! R38   R(32,35)                1.0857         estimate D2E/DX2                !
 ! A1    A(1,2,25)             105.3579         estimate D2E/DX2                !
 ! A2    A(1,3,4)              113.5768         estimate D2E/DX2                !
 ! A3    A(1,3,11)             112.7286         estimate D2E/DX2                !
 ! A4    A(1,3,18)             112.0183         estimate D2E/DX2                !
 ! A5    A(4,3,11)             105.2951         estimate D2E/DX2                !
 ! A6    A(4,3,18)             105.7726         estimate D2E/DX2                !
 ! A7    A(11,3,18)            106.8662         estimate D2E/DX2                !
 ! A8    A(3,4,5)              113.8958         estimate D2E/DX2                !
 ! A9    A(3,4,6)              106.0702         estimate D2E/DX2                !
 ! A10   A(3,4,7)              107.9165         estimate D2E/DX2                !
 ! A11   A(5,4,6)              110.55           estimate D2E/DX2                !
 ! A12   A(5,4,7)              110.8031         estimate D2E/DX2                !
 ! A13   A(6,4,7)              107.2855         estimate D2E/DX2                !
 ! A14   A(4,5,8)              109.93           estimate D2E/DX2                !
 ! A15   A(4,5,9)              111.1881         estimate D2E/DX2                !
 ! A16   A(4,5,10)             111.8352         estimate D2E/DX2                !
 ! A17   A(8,5,9)              108.1223         estimate D2E/DX2                !
 ! A18   A(8,5,10)             107.5504         estimate D2E/DX2                !
 ! A19   A(9,5,10)             108.0687         estimate D2E/DX2                !
 ! A20   A(3,11,12)            113.7417         estimate D2E/DX2                !
 ! A21   A(3,11,13)            106.1328         estimate D2E/DX2                !
 ! A22   A(3,11,14)            107.9882         estimate D2E/DX2                !
 ! A23   A(12,11,13)           110.409          estimate D2E/DX2                !
 ! A24   A(12,11,14)           111.2281         estimate D2E/DX2                !
 ! A25   A(13,11,14)           106.996          estimate D2E/DX2                !
 ! A26   A(11,12,15)           110.0265         estimate D2E/DX2                !
 ! A27   A(11,12,16)           111.1769         estimate D2E/DX2                !
 ! A28   A(11,12,17)           111.8073         estimate D2E/DX2                !
 ! A29   A(15,12,16)           108.0381         estimate D2E/DX2                !
 ! A30   A(15,12,17)           107.6042         estimate D2E/DX2                !
 ! A31   A(16,12,17)           108.0395         estimate D2E/DX2                !
 ! A32   A(3,18,19)            116.5113         estimate D2E/DX2                !
 ! A33   A(3,18,20)            105.4562         estimate D2E/DX2                !
 ! A34   A(3,18,21)            106.113          estimate D2E/DX2                !
 ! A35   A(19,18,20)           110.988          estimate D2E/DX2                !
 ! A36   A(19,18,21)           111.0143         estimate D2E/DX2                !
 ! A37   A(20,18,21)           106.0801         estimate D2E/DX2                !
 ! A38   A(18,19,22)           109.5643         estimate D2E/DX2                !
 ! A39   A(18,19,23)           111.9359         estimate D2E/DX2                !
 ! A40   A(18,19,24)           111.9802         estimate D2E/DX2                !
 ! A41   A(22,19,23)           107.5465         estimate D2E/DX2                !
 ! A42   A(22,19,24)           107.4512         estimate D2E/DX2                !
 ! A43   A(23,19,24)           108.165          estimate D2E/DX2                !
 ! A44   A(2,25,36)            126.0885         estimate D2E/DX2                !
 ! A45   A(2,25,37)            119.3667         estimate D2E/DX2                !
 ! A46   A(36,25,37)           114.5447         estimate D2E/DX2                !
 ! A47   A(27,26,28)           119.6825         estimate D2E/DX2                !
 ! A48   A(27,26,36)           108.6457         estimate D2E/DX2                !
 ! A49   A(28,26,36)           131.6718         estimate D2E/DX2                !
 ! A50   A(26,27,29)           124.1708         estimate D2E/DX2                !
 ! A51   A(26,27,37)           107.3644         estimate D2E/DX2                !
 ! A52   A(29,27,37)           128.4648         estimate D2E/DX2                !
 ! A53   A(26,28,30)           117.3186         estimate D2E/DX2                !
 ! A54   A(26,28,31)           121.2005         estimate D2E/DX2                !
 ! A55   A(30,28,31)           121.4808         estimate D2E/DX2                !
 ! A56   A(27,29,32)           115.6124         estimate D2E/DX2                !
 ! A57   A(27,29,33)           122.2615         estimate D2E/DX2                !
 ! A58   A(32,29,33)           122.1261         estimate D2E/DX2                !
 ! A59   A(28,30,32)           121.7655         estimate D2E/DX2                !
 ! A60   A(28,30,34)           119.2454         estimate D2E/DX2                !
 ! A61   A(32,30,34)           118.9891         estimate D2E/DX2                !
 ! A62   A(29,32,30)           121.4501         estimate D2E/DX2                !
 ! A63   A(29,32,35)           119.166          estimate D2E/DX2                !
 ! A64   A(30,32,35)           119.3839         estimate D2E/DX2                !
 ! A65   A(25,36,26)           104.6437         estimate D2E/DX2                !
 ! A66   A(25,37,27)           104.8015         estimate D2E/DX2                !
 ! A67   L(2,1,3,33,-1)        182.6946         estimate D2E/DX2                !
 ! A68   L(2,1,3,33,-2)        180.0405         estimate D2E/DX2                !
 ! D1    D(25,2,3,4)            53.6309         estimate D2E/DX2                !
 ! D2    D(25,2,3,11)          172.8762         estimate D2E/DX2                !
 ! D3    D(25,2,3,18)          -67.132          estimate D2E/DX2                !
 ! D4    D(1,2,25,36)         -178.9446         estimate D2E/DX2                !
 ! D5    D(1,2,25,37)            1.1342         estimate D2E/DX2                !
 ! D6    D(1,3,4,5)             52.496          estimate D2E/DX2                !
 ! D7    D(1,3,4,6)            -69.319          estimate D2E/DX2                !
 ! D8    D(1,3,4,7)            175.9655         estimate D2E/DX2                !
 ! D9    D(11,3,4,5)           -71.3101         estimate D2E/DX2                !
 ! D10   D(11,3,4,6)           166.875          estimate D2E/DX2                !
 ! D11   D(11,3,4,7)            52.1595         estimate D2E/DX2                !
 ! D12   D(18,3,4,5)           175.7476         estimate D2E/DX2                !
 ! D13   D(18,3,4,6)            53.9326         estimate D2E/DX2                !
 ! D14   D(18,3,4,7)           -60.7828         estimate D2E/DX2                !
 ! D15   D(1,3,11,12)           58.7137         estimate D2E/DX2                !
 ! D16   D(1,3,11,13)          -62.8739         estimate D2E/DX2                !
 ! D17   D(1,3,11,14)         -177.3205         estimate D2E/DX2                !
 ! D18   D(4,3,11,12)         -176.944          estimate D2E/DX2                !
 ! D19   D(4,3,11,13)           61.4684         estimate D2E/DX2                !
 ! D20   D(4,3,11,14)          -52.9782         estimate D2E/DX2                !
 ! D21   D(18,3,11,12)         -64.7724         estimate D2E/DX2                !
 ! D22   D(18,3,11,13)         173.6399         estimate D2E/DX2                !
 ! D23   D(18,3,11,14)          59.1933         estimate D2E/DX2                !
 ! D24   D(1,3,18,19)         -178.5175         estimate D2E/DX2                !
 ! D25   D(1,3,18,20)           57.8951         estimate D2E/DX2                !
 ! D26   D(1,3,18,21)          -54.3767         estimate D2E/DX2                !
 ! D27   D(4,3,18,19)           57.2501         estimate D2E/DX2                !
 ! D28   D(4,3,18,20)          -66.3372         estimate D2E/DX2                !
 ! D29   D(4,3,18,21)         -178.6091         estimate D2E/DX2                !
 ! D30   D(11,3,18,19)         -54.593          estimate D2E/DX2                !
 ! D31   D(11,3,18,20)        -178.1804         estimate D2E/DX2                !
 ! D32   D(11,3,18,21)          69.5478         estimate D2E/DX2                !
 ! D33   D(3,4,5,8)           -177.9192         estimate D2E/DX2                !
 ! D34   D(3,4,5,9)            -58.223          estimate D2E/DX2                !
 ! D35   D(3,4,5,10)            62.6858         estimate D2E/DX2                !
 ! D36   D(6,4,5,8)            -58.6159         estimate D2E/DX2                !
 ! D37   D(6,4,5,9)             61.0804         estimate D2E/DX2                !
 ! D38   D(6,4,5,10)          -178.0109         estimate D2E/DX2                !
 ! D39   D(7,4,5,8)             60.1926         estimate D2E/DX2                !
 ! D40   D(7,4,5,9)            179.8888         estimate D2E/DX2                !
 ! D41   D(7,4,5,10)           -59.2024         estimate D2E/DX2                !
 ! D42   D(3,11,12,15)        -177.3314         estimate D2E/DX2                !
 ! D43   D(3,11,12,16)         -57.6845         estimate D2E/DX2                !
 ! D44   D(3,11,12,17)          63.1598         estimate D2E/DX2                !
 ! D45   D(13,11,12,15)        -58.1525         estimate D2E/DX2                !
 ! D46   D(13,11,12,16)         61.4944         estimate D2E/DX2                !
 ! D47   D(13,11,12,17)       -177.6613         estimate D2E/DX2                !
 ! D48   D(14,11,12,15)         60.475          estimate D2E/DX2                !
 ! D49   D(14,11,12,16)       -179.878          estimate D2E/DX2                !
 ! D50   D(14,11,12,17)        -59.0337         estimate D2E/DX2                !
 ! D51   D(3,18,19,22)         179.9596         estimate D2E/DX2                !
 ! D52   D(3,18,19,23)         -60.8283         estimate D2E/DX2                !
 ! D53   D(3,18,19,24)          60.8386         estimate D2E/DX2                !
 ! D54   D(20,18,19,22)        -59.3536         estimate D2E/DX2                !
 ! D55   D(20,18,19,23)         59.8584         estimate D2E/DX2                !
 ! D56   D(20,18,19,24)       -178.4747         estimate D2E/DX2                !
 ! D57   D(21,18,19,22)         58.3676         estimate D2E/DX2                !
 ! D58   D(21,18,19,23)        177.5797         estimate D2E/DX2                !
 ! D59   D(21,18,19,24)        -60.7535         estimate D2E/DX2                !
 ! D60   D(2,25,36,26)        -179.92           estimate D2E/DX2                !
 ! D61   D(37,25,36,26)          0.0045         estimate D2E/DX2                !
 ! D62   D(2,25,37,27)         179.9325         estimate D2E/DX2                !
 ! D63   D(36,25,37,27)          0.0025         estimate D2E/DX2                !
 ! D64   D(28,26,27,29)         -0.0169         estimate D2E/DX2                !
 ! D65   D(28,26,27,37)       -179.9992         estimate D2E/DX2                !
 ! D66   D(36,26,27,29)        179.9937         estimate D2E/DX2                !
 ! D67   D(36,26,27,37)          0.0114         estimate D2E/DX2                !
 ! D68   D(27,26,28,30)         -0.0008         estimate D2E/DX2                !
 ! D69   D(27,26,28,31)       -179.9896         estimate D2E/DX2                !
 ! D70   D(36,26,28,30)        179.9857         estimate D2E/DX2                !
 ! D71   D(36,26,28,31)         -0.0031         estimate D2E/DX2                !
 ! D72   D(27,26,36,25)         -0.0096         estimate D2E/DX2                !
 ! D73   D(28,26,36,25)       -179.9972         estimate D2E/DX2                !
 ! D74   D(26,27,29,32)          0.0171         estimate D2E/DX2                !
 ! D75   D(26,27,29,33)       -179.9796         estimate D2E/DX2                !
 ! D76   D(37,27,29,32)        179.9955         estimate D2E/DX2                !
 ! D77   D(37,27,29,33)         -0.0012         estimate D2E/DX2                !
 ! D78   D(26,27,37,25)         -0.0084         estimate D2E/DX2                !
 ! D79   D(29,27,37,25)       -179.9897         estimate D2E/DX2                !
 ! D80   D(26,28,30,32)          0.0169         estimate D2E/DX2                !
 ! D81   D(26,28,30,34)       -179.9962         estimate D2E/DX2                !
 ! D82   D(31,28,30,32)       -179.9943         estimate D2E/DX2                !
 ! D83   D(31,28,30,34)         -0.0075         estimate D2E/DX2                !
 ! D84   D(27,29,32,30)         -0.0003         estimate D2E/DX2                !
 ! D85   D(27,29,32,35)       -179.999          estimate D2E/DX2                !
 ! D86   D(33,29,32,30)        179.9964         estimate D2E/DX2                !
 ! D87   D(33,29,32,35)         -0.0023         estimate D2E/DX2                !
 ! D88   D(28,30,32,29)         -0.0168         estimate D2E/DX2                !
 ! D89   D(28,30,32,35)        179.9819         estimate D2E/DX2                !
 ! D90   D(34,30,32,29)        179.9963         estimate D2E/DX2                !
 ! D91   D(34,30,32,35)         -0.005          estimate D2E/DX2                !
 --------------------------------------------------------------------------------
 Trust Radius=3.00D-01 FncErr=1.00D-07 GrdErr=1.00D-06
 Number of steps in this run=    207 maximum allowed number of steps=    222.
 GradGradGradGradGradGradGradGradGradGradGradGradGradGradGradGradGradGrad

                          Input orientation:                          
 ---------------------------------------------------------------------
 Center     Atomic      Atomic             Coordinates (Angstroms)
 Number     Number       Type             X           Y           Z
 ---------------------------------------------------------------------
      1         79           0        0.766712   -0.667598    0.018844
      2         16           0       -1.080730   -2.123249    0.005597
      3         15           0        2.631691    0.664699    0.033775
      4          6           0        2.618035    1.927376    1.356596
      5          6           0        2.358829    1.360477    2.749755
      6          1           0        1.837191    2.645807    1.082188
      7          1           0        3.575624    2.459285    1.324818
      8          1           0        2.327716    2.172218    3.482917
      9          1           0        1.402379    0.829208    2.789117
     10          1           0        3.145749    0.666098    3.059479
     11          6           0        4.174890   -0.282908    0.287372
     12          6           0        4.418578   -1.354796   -0.770964
     13          1           0        4.092844   -0.738104    1.280190
     14          1           0        5.006820    0.429835    0.329383
     15          1           0        5.329164   -1.913861   -0.535330
     16          1           0        3.586303   -2.064865   -0.813691
     17          1           0        4.545257   -0.920695   -1.767680
     18          6           0        2.827535    1.589024   -1.534545
     19          6           0        4.058639    2.483590   -1.648854
     20          1           0        1.906518    2.172498   -1.646682
     21          1           0        2.811037    0.839441   -2.333357
     22          1           0        4.062949    2.978139   -2.625242
     23          1           0        4.068504    3.264835   -0.883479
     24          1           0        4.988570    1.913047   -1.565911
     25          6           0       -2.466021   -1.101557   -0.034925
     26          6           0       -4.447163   -0.318695   -0.074874
     27          6           0       -3.563405    0.763542   -0.100689
     28          6           0       -5.821256   -0.088047   -0.092962
     29          6           0       -3.957909    2.086172   -0.144454
     30          6           0       -6.246639    1.238385   -0.136737
     31          1           0       -6.529767   -0.910222   -0.073481
     32          6           0       -5.337116    2.304480   -0.162189
     33          1           0       -3.244367    2.902836   -0.163874
     34          1           0       -7.310962    1.454049   -0.151811
     35          1           0       -5.711161    3.323094   -0.196473
     36          7           0       -3.709211   -1.493234   -0.032942
     37          8           0       -2.297730    0.256187   -0.075071
 ---------------------------------------------------------------------
                    Distance matrix (angstroms):
                    1          2          3          4          5
     1  Au   0.000000
     2  S    2.352050   0.000000
     3  P    2.292026   4.642792   0.000000
     4  C    3.457003   5.649214   1.828769   0.000000
     5  C    3.755769   5.612247   2.816932   1.526255   0.000000
     6  H    3.640780   5.693611   2.378064   1.095975   2.169092
     7  H    4.401472   6.664953   2.403818   1.095862   2.172191
     8  H    4.743531   6.493096   3.776453   2.159971   1.094266
     9  H    3.212307   4.757186   3.021619   2.176214   1.094803
    10  H    4.084608   5.913525   3.069062   2.183830   1.094228
    11  C    3.440316   5.575643   1.828588   2.907300   3.473057
    12  C    3.798969   5.606778   2.814059   4.305940   4.900075
    13  H    3.557966   5.505368   2.378313   3.047242   3.093618
    14  H    4.390821   6.609186   2.404950   3.000681   3.706231
    15  H    4.761958   6.436085   3.774813   5.068008   5.507809
    16  H    3.255083   4.738759   3.013304   4.646039   5.092917
    17  H    4.187258   6.020164   3.069275   4.646159   5.512842
    18  C    3.428170   5.606027   1.830945   2.918402   4.315918
    19  C    4.852627   7.097414   2.859333   3.378971   4.847525
    20  H    3.484147   5.486995   2.371343   3.096130   4.493620
    21  H    3.461688   5.421632   2.380339   3.851831   5.129717
    22  H    5.581018   7.707328   3.804060   4.364277   5.866127
    23  H    5.213449   7.505766   3.109099   2.985062   4.444092
    24  H    5.195696   7.456388   3.110024   3.763069   5.083881
    25  C    3.262173   1.721780   5.395465   6.079341   6.090585
    26  C    5.226376   3.820440   7.147660   7.550561   7.557756
    27  C    4.562057   3.809007   6.197343   6.456655   6.599562
    28  C    6.614356   5.159879   8.487344   8.796862   8.780265
    29  C    5.471011   5.100970   6.743529   6.746955   6.986004
    30  C    7.269393   6.165019   8.898479   9.015941   9.077490
    31  H    7.301096   5.582982   9.296461   9.683975   9.598639
    32  C    6.791372   6.144083   8.138131   8.107610   8.282399
    33  H    5.373094   5.474630   6.290976   6.134420   6.501070
    34  H    8.353402   7.185933   9.975664  10.054069  10.096172
    35  H    7.611493   7.151530   8.759181   8.586941   8.812313
    36  N    4.551730   2.703205   6.698370   7.325669   7.260040
    37  O    3.202031   2.673820   4.947517   5.385841   5.557215
                    6          7          8          9         10
     6  H    0.000000
     7  H    1.765165   0.000000
     8  H    2.495676   2.509397   0.000000
     9  H    2.530356   3.086149   1.772366   0.000000
    10  H    3.088892   2.531672   1.765467   1.771733   0.000000
    11  C    3.830658   2.992497   4.432968   3.896453   3.105531
    12  C    5.109066   4.432842   5.908218   5.151845   4.514023
    13  H    4.071613   3.239260   4.054338   3.460048   2.456551
    14  H    3.940025   2.675421   4.489797   4.381984   3.312526
    15  H    5.966642   5.065517   6.469238   5.830610   4.934181
    16  H    5.370678   5.004125   6.164232   5.111302   4.759590
    17  H    5.308042   4.682734   6.484780   5.805535   5.270484
    18  C    2.990796   3.081063   5.075910   4.615457   4.696606
    19  C    3.524165   3.012743   5.424769   5.430312   5.128844
    20  H    2.770480   3.420230   5.146863   4.662070   5.094397
    21  H    3.984631   4.073172   5.986563   5.312642   5.405993
    22  H    4.336990   4.013685   6.400793   6.404047   6.205066
    23  H    3.037400   2.401753   4.825927   5.150579   4.811635
    24  H    4.180975   3.263603   5.712966   5.744714   5.132748
    25  C    5.814492   7.143527   6.787690   5.164067   6.647699
    26  C    7.044159   8.604733   8.047454   6.613416   8.273228
    27  C    5.840253   7.474848   7.037891   5.745807   7.416799
    28  C    8.216249   9.838717   9.181582   7.831260   9.534873
    29  C    5.949876   7.684536   7.257707   6.238468   7.921095
    30  C    8.295476  10.005178   9.353796   8.199727   9.937820
    31  H    9.164437  10.743730  10.030175   8.610402  10.291542
    32  C    7.289421   9.037261   8.488459   7.503828   9.220761
    33  H    5.238413   6.994656   6.699328   5.883225   7.498439
    34  H    9.307618  11.032166  10.326235   9.217472  10.967044
    35  H    7.685786   9.450125   8.915490   8.107753   9.803352
    36  N    7.009832   8.398496   7.889315   6.283797   7.824082
    37  O    4.913970   6.427256   6.142085   4.714099   6.294831
                   11         12         13         14         15
    11  C    0.000000
    12  C    1.525910   0.000000
    13  H    1.095273   2.166482   0.000000
    14  H    1.096301   2.177544   1.761666   0.000000
    15  H    2.160832   1.094186   2.491386   2.518838   0.000000
    16  H    2.175809   1.094854   2.530062   3.089986   1.771398
    17  H    2.183388   1.094502   3.086669   2.536660   1.766232
    18  C    2.939197   3.432281   3.865135   3.093094   4.418912
    19  C    3.378757   3.953916   4.354283   3.005059   4.710811
    20  H    3.862007   4.418046   4.670996   4.068609   5.444992
    21  H    3.160377   3.136867   4.146010   3.475547   4.141804
    22  H    4.373817   4.726430   5.391081   4.014294   5.468336
    23  H    3.737471   4.634242   4.550338   3.223150   5.341289
    24  H    2.986461   3.411104   3.991393   2.406739   3.977854
    25  C    6.698937   6.928462   6.699279   7.636834   7.853353
    26  C    8.629734   8.953179   8.657010   9.492182   9.916307
    27  C    7.818367   8.285450   7.923378   8.587495   9.297052
    28  C   10.005277  10.340142  10.029830  10.848678  11.307571
    29  C    8.481830   9.077351   8.649900   9.128764  10.119426
    30  C   10.540516  10.994257  10.621634  11.292093  12.003947
    31  H   10.729092  10.979544  10.709898  11.621140  11.910283
    32  C    9.867874  10.437168  10.013087  10.523923  11.476200
    33  H    8.086901   8.787304   8.317237   8.627927   9.840934
    34  H   11.624745  12.077047  11.700554  12.369653  13.086737
    35  H   10.534295  11.172480  10.714120  11.114072  12.224128
    36  N    7.982890   8.162401   7.947742   8.933010   9.062094
    37  O    6.505136   6.941781   6.607933   7.317799   7.942950
                   16         17         18         19         20
    16  H    0.000000
    17  H    1.771669   0.000000
    18  C    3.800824   3.050182   0.000000
    19  C    4.648553   3.440941   1.526084   0.000000
    20  H    4.633659   4.067607   1.096033   2.174490   0.000000
    21  H    3.368296   2.534874   1.095558   2.174461   1.751205
    22  H    5.379665   4.021062   2.155344   1.094500   2.501366
    23  H    5.351924   4.304389   2.184544   1.093728   2.539658
    24  H    4.284387   2.875297   2.185417   1.094153   3.094008
    25  C    6.177788   7.224484   6.124526   7.617692   5.695287
    26  C    8.254183   9.170148   7.661022   9.092793   7.003277
    27  C    7.721825   8.447835   6.601627   7.965610   5.856220
    28  C    9.639991  10.533877   8.927055  10.326976   8.200159
    29  C    8.636789   9.164057   6.944189   8.166162   6.054391
    30  C   10.395022  11.125944   9.187897  10.489794   8.344248
    31  H   10.208623  11.203864   9.794899  11.230053   9.118609
    32  C    9.957060  10.518586   8.310040   9.514329   7.395362
    33  H    8.471031   8.824388   6.361826   7.464237   5.409596
    34  H   11.470450  12.199195  10.233244  11.513858   9.365508
    35  H   10.763545  11.210377   8.815144   9.912778   7.839388
    36  N    7.359406   8.454192   7.381340   8.875010   6.897692
    37  O    6.368256   7.146779   5.493165   6.916758   4.880360
                   21         22         23         24         25
    21  H    0.000000
    22  H    2.495298   0.000000
    23  H    3.092880   1.765209   0.000000
    24  H    2.546223   1.764477   1.771882   0.000000
    25  C    6.074340   8.122876   7.904773   8.185517   0.000000
    26  C    7.689180   9.476049   9.274272   9.810042   2.130585
    27  C    6.754560   8.333012   8.069403   8.752400   2.164987
    28  C    8.966386  10.654175  10.472540  11.091722   3.505449
    29  C    7.222483   8.442990   8.146086   9.060353   3.521270
    30  C    9.328761  10.747419  10.538800  11.345820   4.447333
    31  H    9.768264  11.568771  11.419744  11.952836   4.068431
    32  C    8.558780   9.740722   9.481995  10.428013   4.456509
    33  H    6.755159   7.711087   7.357102   8.409913   4.081374
    34  H   10.372644  11.739104  11.545845  12.389062   5.478890
    35  H    9.130316  10.077259   9.803939  10.878779   5.489496
    36  N    7.297048   9.333792   9.157264   9.465946   1.303432
    37  O    5.616008   7.373644   7.087625   7.619577   1.368723
                   26         27         28         29         30
    26  C    0.000000
    27  C    1.397473   0.000000
    28  C    1.393434   2.413121   0.000000
    29  C    2.455116   1.380905   2.863903   0.000000
    30  C    2.380428   2.725164   1.393660   2.440715   0.000000
    31  H    2.164982   3.406102   1.085513   3.949414   2.168104
    32  C    2.771405   2.350388   2.442001   1.396490   1.401584
    33  H    3.439898   2.163875   3.948514   1.084647   3.432895
    34  H    3.368959   3.810984   2.144935   3.412125   1.086058
    35  H    3.856826   3.342654   3.414487   2.146293   2.153211
    36  N    1.387758   2.262496   2.537496   3.589768   3.729753
    37  O    2.224983   1.363818   3.540346   2.471812   4.069693
                   31         32         33         34         35
    31  H    0.000000
    32  C    3.429955   0.000000
    33  H    5.034028   2.176610   0.000000
    34  H    2.491220   2.149281   4.316981   0.000000
    35  H    4.313491   1.085661   2.502549   2.460627   0.000000
    36  N    2.880466   4.133934   4.422517   4.655450   5.218387
    37  O    4.389835   3.666192   2.812252   5.154926   4.590443
                   36         37
    36  N    0.000000
    37  O    2.248228   0.000000
 Stoichiometry    C13H19AuNOPS
 Framework group  C1[X(C13H19AuNOPS)]
 Deg. of freedom   105
 Full point group                 C1      NOp   1
 Largest Abelian subgroup         C1      NOp   1
 Largest concise Abelian subgroup C1      NOp   1
                         Standard orientation:                         
 ---------------------------------------------------------------------
 Center     Atomic      Atomic             Coordinates (Angstroms)
 Number     Number       Type             X           Y           Z
 ---------------------------------------------------------------------
      1         79           0        0.766712   -0.667598    0.018844
      2         16           0       -1.080730   -2.123249    0.005597
      3         15           0        2.631691    0.664699    0.033775
      4          6           0        2.618035    1.927376    1.356596
      5          6           0        2.358829    1.360477    2.749755
      6          1           0        1.837191    2.645807    1.082188
      7          1           0        3.575624    2.459285    1.324818
      8          1           0        2.327716    2.172218    3.482917
      9          1           0        1.402379    0.829208    2.789117
     10          1           0        3.145749    0.666098    3.059479
     11          6           0        4.174890   -0.282908    0.287372
     12          6           0        4.418578   -1.354796   -0.770964
     13          1           0        4.092844   -0.738104    1.280190
     14          1           0        5.006820    0.429835    0.329383
     15          1           0        5.329164   -1.913861   -0.535330
     16          1           0        3.586303   -2.064865   -0.813691
     17          1           0        4.545257   -0.920695   -1.767680
     18          6           0        2.827535    1.589024   -1.534545
     19          6           0        4.058639    2.483590   -1.648854
     20          1           0        1.906518    2.172498   -1.646682
     21          1           0        2.811037    0.839441   -2.333357
     22          1           0        4.062949    2.978139   -2.625242
     23          1           0        4.068504    3.264835   -0.883479
     24          1           0        4.988570    1.913047   -1.565911
     25          6           0       -2.466021   -1.101557   -0.034925
     26          6           0       -4.447163   -0.318695   -0.074874
     27          6           0       -3.563405    0.763542   -0.100689
     28          6           0       -5.821256   -0.088047   -0.092962
     29          6           0       -3.957909    2.086172   -0.144454
     30          6           0       -6.246639    1.238385   -0.136737
     31          1           0       -6.529767   -0.910222   -0.073481
     32          6           0       -5.337116    2.304480   -0.162189
     33          1           0       -3.244367    2.902836   -0.163874
     34          1           0       -7.310962    1.454049   -0.151811
     35          1           0       -5.711161    3.323094   -0.196473
     36          7           0       -3.709211   -1.493234   -0.032942
     37          8           0       -2.297730    0.256187   -0.075071
 ---------------------------------------------------------------------
 Rotational constants (GHZ):      0.5351884      0.1267583      0.1135336
 General basis read from cards:  (5D, 7F)
 ======================================================================================================
                                       Pseudopotential Parameters
 ======================================================================================================
  Center     Atomic      Valence      Angular      Power
  Number     Number     Electrons     Momentum     of R      Exponent        Coefficient   SO-Coeffient
 ======================================================================================================
    1         79           19
                                      G and up 
                                                     1      622.6287956      -60.00000000    0.00000000
                                                     2      136.2843607     -555.52923120    0.00000000
                                                     2       33.1549781     -168.00197850    0.00000000
                                                     2        9.9894895      -63.03998750    0.00000000
                                                     2        3.0481312       -4.25166810    0.00000000
                                      S - G
                                                     0      194.7374304        3.00000000    0.00000000
                                                     1      351.5327447       38.60208800    0.00000000
                                                     2      122.3270402      864.83707270    0.00000000
                                                     2       32.0914617      374.99355200    0.00000000
                                                     2        5.2451812      289.79101000    0.00000000
                                                     2        4.4916223     -152.45327730    0.00000000
                                      P - G
                                                     0      420.6158801        2.00000000    0.00000000
                                                     1      109.4417815       73.88856250    0.00000000
                                                     2       34.1714280      326.67298720    0.00000000
                                                     2        5.9879750      126.58145910    0.00000000
                                      D - G
                                                     0      219.2666158        3.00000000    0.00000000
                                                     1      122.7297786       55.67931490    0.00000000
                                                     2       63.1063369      449.19873350    0.00000000
                                                     2       18.3684520      215.02690910    0.00000000
                                                     2        4.4972844       64.08409950    0.00000000
                                      F - G
                                                     0      108.5506037        4.00000000    0.00000000
                                                     1       56.4795527       51.80653350    0.00000000
                                                     2       29.2069159      231.21831130    0.00000000
                                                     2        9.5440543      119.00473860    0.00000000
                                                     2        2.8965118       15.34241880    0.00000000
    2         16
                                   No pseudopotential on this center.
    3         15
                                   No pseudopotential on this center.
    4          6
                                   No pseudopotential on this center.
    5          6
                                   No pseudopotential on this center.
    6          1
                                   No pseudopotential on this center.
    7          1
                                   No pseudopotential on this center.
    8          1
                                   No pseudopotential on this center.
    9          1
                                   No pseudopotential on this center.
   10          1
                                   No pseudopotential on this center.
   11          6
                                   No pseudopotential on this center.
   12          6
                                   No pseudopotential on this center.
   13          1
                                   No pseudopotential on this center.
   14          1
                                   No pseudopotential on this center.
   15          1
                                   No pseudopotential on this center.
   16          1
                                   No pseudopotential on this center.
   17          1
                                   No pseudopotential on this center.
   18          6
                                   No pseudopotential on this center.
   19          6
                                   No pseudopotential on this center.
   20          1
                                   No pseudopotential on this center.
   21          1
                                   No pseudopotential on this center.
   22          1
                                   No pseudopotential on this center.
   23          1
                                   No pseudopotential on this center.
   24          1
                                   No pseudopotential on this center.
   25          6
                                   No pseudopotential on this center.
   26          6
                                   No pseudopotential on this center.
   27          6
                                   No pseudopotential on this center.
   28          6
                                   No pseudopotential on this center.
   29          6
                                   No pseudopotential on this center.
   30          6
                                   No pseudopotential on this center.
   31          1
                                   No pseudopotential on this center.
   32          6
                                   No pseudopotential on this center.
   33          1
                                   No pseudopotential on this center.
   34          1
                                   No pseudopotential on this center.
   35          1
                                   No pseudopotential on this center.
   36          7
                                   No pseudopotential on this center.
   37          8
                                   No pseudopotential on this center.
 ======================================================================================================
 There are   349 symmetry adapted cartesian basis functions of A   symmetry.
 There are   326 symmetry adapted basis functions of A   symmetry.
   326 basis functions,   648 primitive gaussians,   349 cartesian basis functions
    81 alpha electrons       81 beta electrons
       nuclear repulsion energy      1718.2576096838 Hartrees.
 NAtoms=   37 NActive=   37 NUniq=   37 SFac= 1.00D+00 NAtFMM=   60 NAOKFM=F Big=F
 Integral buffers will be    131072 words long.
 Raffenetti 2 integral format.
 Two-electron integral symmetry is turned on.
 One-electron integrals computed using PRISM.
   1 Symmetry operations used in ECPInt.
 ECPInt:  NShTT=    7503 NPrTT=   42298 LenC2=    6169 LenP2D=   20447.
 LDataN:  DoStor=T MaxTD1= 7 Len=  274
 NBasis=   326 RedAO= T EigKep=  4.40D-04  NBF=   326
 NBsUse=   326 1.00D-06 EigRej= -1.00D+00 NBFU=   326
 Defaulting to unpruned grid for atomic number  79.
 ExpMin= 2.79D-02 ExpMax= 2.19D+04 ExpMxC= 3.30D+03 IAcc=3 IRadAn=         5 AccDes= 0.00D+00
 Harris functional with IExCor=  402 and IRadAn=       5 diagonalized for initial guess.
 HarFok:  IExCor=  402 AccDes= 0.00D+00 IRadAn=         5 IDoV= 1 UseB2=F ITyADJ=14
 ICtDFT=  3500011 ScaDFX=  1.000000  1.000000  1.000000  1.000000
 Defaulting to unpruned grid for atomic number  79.
 Defaulting to unpruned grid for atomic number  79.
 Defaulting to unpruned grid for atomic number  79.
 Defaulting to unpruned grid for atomic number  79.
 Defaulting to unpruned grid for atomic number  79.
 Defaulting to unpruned grid for atomic number  79.
 Defaulting to unpruned grid for atomic number  79.
 Defaulting to unpruned grid for atomic number  79.
 FoFCou: FMM=F IPFlag=           0 FMFlag=      100000 FMFlg1=           0
         NFxFlg=           0 DoJE=T BraDBF=F KetDBF=T FulRan=T
         wScrn=  0.000000 ICntrl=     500 IOpCl=  0 I1Cent=   200000004 NGrid=           0
         NMat0=    1 NMatS0=      1 NMatT0=    0 NMatD0=    1 NMtDS0=    0 NMtDT0=    0
 Petite list used in FoFCou.
 Keep R1 ints in memory in canonical form, NReq=1442351637.
 Requested convergence on RMS density matrix=1.00D-08 within 128 cycles.
 Requested convergence on MAX density matrix=1.00D-06.
 Requested convergence on             energy=1.00D-06.
 No special actions if energy rises.
 Defaulting to unpruned grid for atomic number  79.
 Defaulting to unpruned grid for atomic number  79.
 Defaulting to unpruned grid for atomic number  79.
 Defaulting to unpruned grid for atomic number  79.
 Defaulting to unpruned grid for atomic number  79.
 Defaulting to unpruned grid for atomic number  79.
 Defaulting to unpruned grid for atomic number  79.
 Defaulting to unpruned grid for atomic number  79.
 EnCoef did   100 forward-backward iterations
 SCF Done:  E(RB3LYP) =  -1511.89587805     A.U. after   15 cycles
            NFock= 15  Conv=0.76D-08     -V/T= 2.0692

 **********************************************************************

            Population analysis using the SCF density.

 **********************************************************************

 Orbital symmetries:
       Occupied  (A) (A) (A) (A) (A) (A) (A) (A) (A) (A) (A) (A)
                 (A) (A) (A) (A) (A) (A) (A) (A) (A) (A) (A) (A)
                 (A) (A) (A) (A) (A) (A) (A) (A) (A) (A) (A) (A)
                 (A) (A) (A) (A) (A) (A) (A) (A) (A) (A) (A) (A)
                 (A) (A) (A) (A) (A) (A) (A) (A) (A) (A) (A) (A)
                 (A) (A) (A) (A) (A) (A) (A) (A) (A) (A) (A) (A)
                 (A) (A) (A) (A) (A) (A) (A) (A) (A)
       Virtual   (A) (A) (A) (A) (A) (A) (A) (A) (A) (A) (A) (A)
                 (A) (A) (A) (A) (A) (A) (A) (A) (A) (A) (A) (A)
                 (A) (A) (A) (A) (A) (A) (A) (A) (A) (A) (A) (A)
                 (A) (A) (A) (A) (A) (A) (A) (A) (A) (A) (A) (A)
                 (A) (A) (A) (A) (A) (A) (A) (A) (A) (A) (A) (A)
                 (A) (A) (A) (A) (A) (A) (A) (A) (A) (A) (A) (A)
                 (A) (A) (A) (A) (A) (A) (A) (A) (A) (A) (A) (A)
                 (A) (A) (A) (A) (A) (A) (A) (A) (A) (A) (A) (A)
                 (A) (A) (A) (A) (A) (A) (A) (A) (A) (A) (A) (A)
                 (A) (A) (A) (A) (A) (A) (A) (A) (A) (A) (A) (A)
                 (A) (A) (A) (A) (A) (A) (A) (A) (A) (A) (A) (A)
                 (A) (A) (A) (A) (A) (A) (A) (A) (A) (A) (A) (A)
                 (A) (A) (A) (A) (A) (A) (A) (A) (A) (A) (A) (A)
                 (A) (A) (A) (A) (A) (A) (A) (A) (A) (A) (A) (A)
                 (A) (A) (A) (A) (A) (A) (A) (A) (A) (A) (A) (A)
                 (A) (A) (A) (A) (A) (A) (A) (A) (A) (A) (A) (A)
                 (A) (A) (A) (A) (A) (A) (A) (A) (A) (A) (A) (A)
                 (A) (A) (A) (A) (A) (A) (A) (A) (A) (A) (A) (A)
                 (A) (A) (A) (A) (A) (A) (A) (A) (A) (A) (A) (A)
                 (A) (A) (A) (A) (A) (A) (A) (A) (A) (A) (A) (A)
                 (A) (A) (A) (A) (A)
 The electronic state is 1-A.
 Alpha  occ. eigenvalues --  -88.82698 -77.12603 -19.19493 -14.29545 -10.26993
 Alpha  occ. eigenvalues --  -10.21987 -10.21957 -10.21951 -10.21936 -10.20747
 Alpha  occ. eigenvalues --  -10.20119 -10.19916 -10.18980 -10.17529 -10.16942
 Alpha  occ. eigenvalues --  -10.16663 -10.16619  -7.90434  -6.60721  -5.86841
 Alpha  occ. eigenvalues --   -5.86302  -5.86025  -4.76857  -4.76847  -4.76633
 Alpha  occ. eigenvalues --   -4.17049  -2.31713  -2.29607  -2.29502  -1.10996
 Alpha  occ. eigenvalues --   -0.89856  -0.83765  -0.83554  -0.79243  -0.79087
 Alpha  occ. eigenvalues --   -0.75622  -0.73190  -0.70147  -0.68785  -0.65976
 Alpha  occ. eigenvalues --   -0.64962  -0.60413  -0.59019  -0.57278  -0.56188
 Alpha  occ. eigenvalues --   -0.50416  -0.49576  -0.48862  -0.48790  -0.48503
 Alpha  occ. eigenvalues --   -0.46937  -0.45550  -0.45288  -0.45086  -0.43730
 Alpha  occ. eigenvalues --   -0.42809  -0.41726  -0.41080  -0.40748  -0.40029
 Alpha  occ. eigenvalues --   -0.39545  -0.39251  -0.38732  -0.37933  -0.36381
 Alpha  occ. eigenvalues --   -0.35721  -0.35492  -0.34958  -0.34032  -0.33586
 Alpha  occ. eigenvalues --   -0.32817  -0.31479  -0.30838  -0.30515  -0.30449
 Alpha  occ. eigenvalues --   -0.27672  -0.26008  -0.24978  -0.24635  -0.22395
 Alpha  occ. eigenvalues --   -0.18469
 Alpha virt. eigenvalues --   -0.02324  -0.01859   0.00623   0.01207   0.02974
 Alpha virt. eigenvalues --    0.03159   0.04791   0.04990   0.06889   0.07488
 Alpha virt. eigenvalues --    0.08285   0.08873   0.09679   0.10131   0.10362
 Alpha virt. eigenvalues --    0.11105   0.11541   0.13145   0.13351   0.13791
 Alpha virt. eigenvalues --    0.14650   0.14970   0.15301   0.15807   0.15966
 Alpha virt. eigenvalues --    0.16808   0.17870   0.18281   0.19013   0.19453
 Alpha virt. eigenvalues --    0.19555   0.19601   0.19878   0.20421   0.21951
 Alpha virt. eigenvalues --    0.22536   0.23782   0.24196   0.27322   0.28634
 Alpha virt. eigenvalues --    0.29439   0.31423   0.34059   0.34782   0.35516
 Alpha virt. eigenvalues --    0.36188   0.37567   0.38176   0.39213   0.39873
 Alpha virt. eigenvalues --    0.41780   0.42217   0.42674   0.45171   0.45853
 Alpha virt. eigenvalues --    0.46638   0.49070   0.51666   0.51904   0.53411
 Alpha virt. eigenvalues --    0.53651   0.53745   0.54244   0.55606   0.56607
 Alpha virt. eigenvalues --    0.56960   0.57367   0.57826   0.58218   0.59553
 Alpha virt. eigenvalues --    0.60387   0.60987   0.61235   0.62053   0.62747
 Alpha virt. eigenvalues --    0.63091   0.63528   0.64073   0.64345   0.66079
 Alpha virt. eigenvalues --    0.66538   0.68571   0.68778   0.69718   0.70433
 Alpha virt. eigenvalues --    0.71374   0.73006   0.74989   0.77233   0.78676
 Alpha virt. eigenvalues --    0.79468   0.81145   0.81504   0.82733   0.83687
 Alpha virt. eigenvalues --    0.84030   0.84336   0.84618   0.84783   0.85291
 Alpha virt. eigenvalues --    0.85678   0.86107   0.86563   0.87249   0.87832
 Alpha virt. eigenvalues --    0.88221   0.89314   0.90579   0.91516   0.91625
 Alpha virt. eigenvalues --    0.91840   0.92255   0.92458   0.94944   0.95062
 Alpha virt. eigenvalues --    0.96233   0.96368   0.97653   0.97748   0.98220
 Alpha virt. eigenvalues --    0.98623   0.99243   0.99674   1.00488   1.01334
 Alpha virt. eigenvalues --    1.01978   1.03569   1.03816   1.05436   1.06043
 Alpha virt. eigenvalues --    1.07500   1.10522   1.12372   1.15802   1.16525
 Alpha virt. eigenvalues --    1.19256   1.21241   1.24440   1.25527   1.26324
 Alpha virt. eigenvalues --    1.35006   1.36060   1.36105   1.36821   1.41783
 Alpha virt. eigenvalues --    1.42124   1.46656   1.47032   1.48825   1.49473
 Alpha virt. eigenvalues --    1.49946   1.50797   1.51507   1.52401   1.53683
 Alpha virt. eigenvalues --    1.56045   1.57849   1.60060   1.62440   1.65162
 Alpha virt. eigenvalues --    1.67993   1.73753   1.75285   1.81437   1.82524
 Alpha virt. eigenvalues --    1.83164   1.84472   1.84761   1.89059   1.90152
 Alpha virt. eigenvalues --    1.90319   1.91289   1.92210   1.93004   1.93795
 Alpha virt. eigenvalues --    1.94205   1.95389   1.95685   1.96183   1.96272
 Alpha virt. eigenvalues --    1.97856   1.98045   1.98583   1.99147   2.00015
 Alpha virt. eigenvalues --    2.00399   2.00480   2.01358   2.02229   2.02618
 Alpha virt. eigenvalues --    2.02836   2.04825   2.05144   2.08845   2.10396
 Alpha virt. eigenvalues --    2.11442   2.11555   2.14447   2.16329   2.19745
 Alpha virt. eigenvalues --    2.21151   2.23598   2.23694   2.25157   2.26049
 Alpha virt. eigenvalues --    2.26653   2.26837   2.27914   2.28072   2.28497
 Alpha virt. eigenvalues --    2.28590   2.29664   2.30299   2.30843   2.31685
 Alpha virt. eigenvalues --    2.31884   2.32428   2.32800   2.33867   2.45496
 Alpha virt. eigenvalues --    2.48892   2.50862   2.54143   2.57558   2.58613
 Alpha virt. eigenvalues --    2.62066   2.63062   2.63477   2.65975   2.67115
 Alpha virt. eigenvalues --    2.69828   2.70639   2.73315   2.79222   2.85767
 Alpha virt. eigenvalues --    2.88694   2.93133   3.08107   3.12141   3.23649
 Alpha virt. eigenvalues --    3.49339  15.58960  15.59853  15.69310  43.13907
          Condensed to atoms (all electrons):
               1          2          3          4          5          6
     1  Au  18.525518   0.289761   0.331904  -0.031608   0.000301  -0.002673
     2  S    0.289761  15.588070  -0.000713   0.000011  -0.000073  -0.000016
     3  P    0.331904  -0.000713  13.600589   0.318412  -0.038749  -0.029236
     4  C   -0.031608   0.000011   0.318412   5.231121   0.365160   0.369861
     5  C    0.000301  -0.000073  -0.038749   0.365160   5.063550  -0.028088
     6  H   -0.002673  -0.000016  -0.029236   0.369861  -0.028088   0.531693
     7  H    0.004603  -0.000002  -0.031550   0.359783  -0.032337  -0.029209
     8  H   -0.000596   0.000000   0.004987  -0.028845   0.373969  -0.005138
     9  H    0.011605  -0.000083  -0.010614  -0.032239   0.384186  -0.003326
    10  H    0.000050  -0.000006  -0.005896  -0.038440   0.381702   0.004531
    11  C   -0.028452   0.000040   0.321518  -0.030740  -0.002148   0.002162
    12  C    0.000822  -0.000038  -0.038822   0.001828   0.000075  -0.000029
    13  H   -0.003402  -0.000017  -0.033260  -0.001580   0.001293   0.000041
    14  H    0.004616  -0.000002  -0.031448  -0.002780  -0.000168  -0.000003
    15  H   -0.000487   0.000000   0.005106  -0.000061   0.000000   0.000001
    16  H    0.011955  -0.000084  -0.009808   0.000021  -0.000005   0.000000
    17  H   -0.000582  -0.000003  -0.006328   0.000007  -0.000001   0.000000
    18  C   -0.030547  -0.000012   0.310008  -0.031945   0.001760  -0.001338
    19  C    0.002766   0.000000  -0.026274  -0.004130   0.000089  -0.000229
    20  H   -0.001535  -0.000024  -0.032100  -0.002903   0.000010   0.001841
    21  H   -0.000902  -0.000037  -0.031500   0.002047  -0.000025   0.000037
    22  H   -0.000191   0.000000   0.004444   0.000033   0.000000  -0.000017
    23  H    0.000487   0.000000  -0.007670   0.002333  -0.000012   0.000425
    24  H    0.000037   0.000000  -0.007552  -0.000310  -0.000008   0.000032
    25  C   -0.035498   0.329686  -0.000069   0.000000   0.000000  -0.000001
    26  C    0.000600   0.003458  -0.000001   0.000000   0.000000   0.000000
    27  C   -0.000023   0.004265  -0.000001   0.000000   0.000000   0.000000
    28  C   -0.000493  -0.000215   0.000000   0.000000   0.000000   0.000000
    29  C   -0.000648  -0.000386   0.000001   0.000000   0.000000   0.000000
    30  C   -0.000025   0.000004   0.000000   0.000000   0.000000   0.000000
    31  H    0.000174   0.000005   0.000000   0.000000   0.000000   0.000000
    32  C   -0.000281   0.000013   0.000000   0.000000   0.000000   0.000000
    33  H    0.001556  -0.000026  -0.000004   0.000000   0.000000   0.000000
    34  H   -0.000013   0.000000   0.000000   0.000000   0.000000   0.000000
    35  H    0.000001   0.000000   0.000000   0.000000   0.000000   0.000000
    36  N    0.006711  -0.054484  -0.000005   0.000000   0.000000   0.000000
    37  O    0.027192  -0.065074  -0.000555   0.000001   0.000001  -0.000002
               7          8          9         10         11         12
     1  Au   0.004603  -0.000596   0.011605   0.000050  -0.028452   0.000822
     2  S   -0.000002   0.000000  -0.000083  -0.000006   0.000040  -0.000038
     3  P   -0.031550   0.004987  -0.010614  -0.005896   0.321518  -0.038822
     4  C    0.359783  -0.028845  -0.032239  -0.038440  -0.030740   0.001828
     5  C   -0.032337   0.373969   0.384186   0.381702  -0.002148   0.000075
     6  H   -0.029209  -0.005138  -0.003326   0.004531   0.002162  -0.000029
     7  H    0.560088  -0.003883   0.003933  -0.003347  -0.005142   0.000000
     8  H   -0.003883   0.551113  -0.026329  -0.029988  -0.000016   0.000000
     9  H    0.003933  -0.026329   0.489992  -0.028288  -0.000068  -0.000005
    10  H   -0.003347  -0.029988  -0.028288   0.555413   0.001622  -0.000019
    11  C   -0.005142  -0.000016  -0.000068   0.001622   5.221940   0.363189
    12  C    0.000000   0.000000  -0.000005  -0.000019   0.363189   5.066025
    13  H   -0.000337  -0.000061  -0.000009   0.003171   0.373005  -0.027317
    14  H    0.003552  -0.000007   0.000004   0.000195   0.357273  -0.032103
    15  H   -0.000003   0.000000   0.000000   0.000003  -0.028230   0.374538
    16  H    0.000000   0.000000  -0.000001   0.000001  -0.033053   0.383939
    17  H    0.000001   0.000000   0.000000   0.000000  -0.038277   0.381661
    18  C   -0.002850  -0.000058   0.000018   0.000018  -0.028555  -0.001624
    19  C    0.001426   0.000000  -0.000002  -0.000005  -0.003999  -0.000753
    20  H   -0.000184  -0.000002  -0.000004   0.000002   0.002189   0.000046
    21  H   -0.000030   0.000001  -0.000001   0.000001  -0.002461   0.001451
    22  H   -0.000053   0.000000   0.000000   0.000000   0.000047  -0.000004
    23  H    0.003183   0.000004   0.000000   0.000003  -0.000253   0.000038
    24  H    0.000065   0.000000   0.000000   0.000000   0.001688   0.000415
    25  C    0.000000   0.000000  -0.000003   0.000000   0.000000   0.000000
    26  C    0.000000   0.000000   0.000000   0.000000   0.000000   0.000000
    27  C    0.000000   0.000000  -0.000001   0.000000   0.000000   0.000000
    28  C    0.000000   0.000000   0.000000   0.000000   0.000000   0.000000
    29  C    0.000000   0.000000   0.000000   0.000000   0.000000   0.000000
    30  C    0.000000   0.000000   0.000000   0.000000   0.000000   0.000000
    31  H    0.000000   0.000000   0.000000   0.000000   0.000000   0.000000
    32  C    0.000000   0.000000   0.000000   0.000000   0.000000   0.000000
    33  H    0.000000   0.000000   0.000000   0.000000   0.000000   0.000000
    34  H    0.000000   0.000000   0.000000   0.000000   0.000000   0.000000
    35  H    0.000000   0.000000   0.000000   0.000000   0.000000   0.000000
    36  N    0.000000   0.000000   0.000000   0.000000   0.000000   0.000000
    37  O    0.000000   0.000000  -0.000012   0.000000   0.000000   0.000000
              13         14         15         16         17         18
     1  Au  -0.003402   0.004616  -0.000487   0.011955  -0.000582  -0.030547
     2  S   -0.000017  -0.000002   0.000000  -0.000084  -0.000003  -0.000012
     3  P   -0.033260  -0.031448   0.005106  -0.009808  -0.006328   0.310008
     4  C   -0.001580  -0.002780  -0.000061   0.000021   0.000007  -0.031945
     5  C    0.001293  -0.000168   0.000000  -0.000005  -0.000001   0.001760
     6  H    0.000041  -0.000003   0.000001   0.000000   0.000000  -0.001338
     7  H   -0.000337   0.003552  -0.000003   0.000000   0.000001  -0.002850
     8  H   -0.000061  -0.000007   0.000000   0.000000   0.000000  -0.000058
     9  H   -0.000009   0.000004   0.000000  -0.000001   0.000000   0.000018
    10  H    0.003171   0.000195   0.000003   0.000001   0.000000   0.000018
    11  C    0.373005   0.357273  -0.028230  -0.033053  -0.038277  -0.028555
    12  C   -0.027317  -0.032103   0.374538   0.383939   0.381661  -0.001624
    13  H    0.524651  -0.029885  -0.004859  -0.003446   0.004461   0.002277
    14  H   -0.029885   0.562919  -0.004086   0.004075  -0.003654  -0.004973
    15  H   -0.004859  -0.004086   0.548698  -0.026763  -0.030009   0.000000
    16  H   -0.003446   0.004075  -0.026763   0.494296  -0.028816  -0.000216
    17  H    0.004461  -0.003654  -0.030009  -0.028816   0.557655   0.001909
    18  C    0.002277  -0.004973   0.000000  -0.000216   0.001909   5.242859
    19  C    0.000019   0.002159  -0.000003   0.000019   0.000311   0.348690
    20  H   -0.000026  -0.000017   0.000001  -0.000007   0.000006   0.374579
    21  H    0.000010  -0.000174  -0.000044  -0.000106   0.001796   0.374198
    22  H    0.000001  -0.000080   0.000000   0.000000  -0.000022  -0.029335
    23  H   -0.000012   0.000013   0.000000  -0.000001  -0.000006  -0.035998
    24  H    0.000013   0.002827  -0.000010  -0.000010   0.001193  -0.036325
    25  C    0.000000   0.000000   0.000000   0.000000   0.000000   0.000000
    26  C    0.000000   0.000000   0.000000   0.000000   0.000000   0.000000
    27  C    0.000000   0.000000   0.000000   0.000000   0.000000   0.000000
    28  C    0.000000   0.000000   0.000000   0.000000   0.000000   0.000000
    29  C    0.000000   0.000000   0.000000   0.000000   0.000000   0.000000
    30  C    0.000000   0.000000   0.000000   0.000000   0.000000   0.000000
    31  H    0.000000   0.000000   0.000000   0.000000   0.000000   0.000000
    32  C    0.000000   0.000000   0.000000   0.000000   0.000000   0.000000
    33  H    0.000000   0.000000   0.000000   0.000000   0.000000   0.000000
    34  H    0.000000   0.000000   0.000000   0.000000   0.000000   0.000000
    35  H    0.000000   0.000000   0.000000   0.000000   0.000000   0.000000
    36  N    0.000000   0.000000   0.000000   0.000000   0.000000   0.000000
    37  O    0.000000   0.000000   0.000000   0.000000   0.000000   0.000001
              19         20         21         22         23         24
     1  Au   0.002766  -0.001535  -0.000902  -0.000191   0.000487   0.000037
     2  S    0.000000  -0.000024  -0.000037   0.000000   0.000000   0.000000
     3  P   -0.026274  -0.032100  -0.031500   0.004444  -0.007670  -0.007552
     4  C   -0.004130  -0.002903   0.002047   0.000033   0.002333  -0.000310
     5  C    0.000089   0.000010  -0.000025   0.000000  -0.000012  -0.000008
     6  H   -0.000229   0.001841   0.000037  -0.000017   0.000425   0.000032
     7  H    0.001426  -0.000184  -0.000030  -0.000053   0.003183   0.000065
     8  H    0.000000  -0.000002   0.000001   0.000000   0.000004   0.000000
     9  H   -0.000002  -0.000004  -0.000001   0.000000   0.000000   0.000000
    10  H   -0.000005   0.000002   0.000001   0.000000   0.000003   0.000000
    11  C   -0.003999   0.002189  -0.002461   0.000047  -0.000253   0.001688
    12  C   -0.000753   0.000046   0.001451  -0.000004   0.000038   0.000415
    13  H    0.000019  -0.000026   0.000010   0.000001  -0.000012   0.000013
    14  H    0.002159  -0.000017  -0.000174  -0.000080   0.000013   0.002827
    15  H   -0.000003   0.000001  -0.000044   0.000000   0.000000  -0.000010
    16  H    0.000019  -0.000007  -0.000106   0.000000  -0.000001  -0.000010
    17  H    0.000311   0.000006   0.001796  -0.000022  -0.000006   0.001193
    18  C    0.348690   0.374579   0.374198  -0.029335  -0.035998  -0.036325
    19  C    5.061352  -0.032668  -0.033481   0.378354   0.382362   0.382261
    20  H   -0.032668   0.520664  -0.024403  -0.003968  -0.003035   0.004349
    21  H   -0.033481  -0.024403   0.517361  -0.004042   0.004298  -0.003249
    22  H    0.378354  -0.003968  -0.004042   0.543278  -0.029236  -0.029423
    23  H    0.382362  -0.003035   0.004298  -0.029236   0.553578  -0.030711
    24  H    0.382261   0.004349  -0.003249  -0.029423  -0.030711   0.554713
    25  C    0.000000  -0.000001   0.000000   0.000000   0.000000   0.000000
    26  C    0.000000   0.000000   0.000000   0.000000   0.000000   0.000000
    27  C    0.000000  -0.000001   0.000000   0.000000   0.000000   0.000000
    28  C    0.000000   0.000000   0.000000   0.000000   0.000000   0.000000
    29  C    0.000000   0.000000   0.000000   0.000000   0.000000   0.000000
    30  C    0.000000   0.000000   0.000000   0.000000   0.000000   0.000000
    31  H    0.000000   0.000000   0.000000   0.000000   0.000000   0.000000
    32  C    0.000000   0.000000   0.000000   0.000000   0.000000   0.000000
    33  H    0.000000   0.000000   0.000000   0.000000   0.000000   0.000000
    34  H    0.000000   0.000000   0.000000   0.000000   0.000000   0.000000
    35  H    0.000000   0.000000   0.000000   0.000000   0.000000   0.000000
    36  N    0.000000   0.000000   0.000000   0.000000   0.000000   0.000000
    37  O    0.000000  -0.000004   0.000000   0.000000   0.000000   0.000000
              25         26         27         28         29         30
     1  Au  -0.035498   0.000600  -0.000023  -0.000493  -0.000648  -0.000025
     2  S    0.329686   0.003458   0.004265  -0.000215  -0.000386   0.000004
     3  P   -0.000069  -0.000001  -0.000001   0.000000   0.000001   0.000000
     4  C    0.000000   0.000000   0.000000   0.000000   0.000000   0.000000
     5  C    0.000000   0.000000   0.000000   0.000000   0.000000   0.000000
     6  H   -0.000001   0.000000   0.000000   0.000000   0.000000   0.000000
     7  H    0.000000   0.000000   0.000000   0.000000   0.000000   0.000000
     8  H    0.000000   0.000000   0.000000   0.000000   0.000000   0.000000
     9  H   -0.000003   0.000000  -0.000001   0.000000   0.000000   0.000000
    10  H    0.000000   0.000000   0.000000   0.000000   0.000000   0.000000
    11  C    0.000000   0.000000   0.000000   0.000000   0.000000   0.000000
    12  C    0.000000   0.000000   0.000000   0.000000   0.000000   0.000000
    13  H    0.000000   0.000000   0.000000   0.000000   0.000000   0.000000
    14  H    0.000000   0.000000   0.000000   0.000000   0.000000   0.000000
    15  H    0.000000   0.000000   0.000000   0.000000   0.000000   0.000000
    16  H    0.000000   0.000000   0.000000   0.000000   0.000000   0.000000
    17  H    0.000000   0.000000   0.000000   0.000000   0.000000   0.000000
    18  C    0.000000   0.000000   0.000000   0.000000   0.000000   0.000000
    19  C    0.000000   0.000000   0.000000   0.000000   0.000000   0.000000
    20  H   -0.000001   0.000000  -0.000001   0.000000   0.000000   0.000000
    21  H    0.000000   0.000000   0.000000   0.000000   0.000000   0.000000
    22  H    0.000000   0.000000   0.000000   0.000000   0.000000   0.000000
    23  H    0.000000   0.000000   0.000000   0.000000   0.000000   0.000000
    24  H    0.000000   0.000000   0.000000   0.000000   0.000000   0.000000
    25  C    4.749167  -0.080777  -0.067033   0.005067   0.002422   0.000014
    26  C   -0.080777   4.682876   0.450345   0.502031  -0.032704   0.000200
    27  C   -0.067033   0.450345   4.788342  -0.037315   0.452734  -0.050040
    28  C    0.005067   0.502031  -0.037315   4.988309  -0.041992   0.522382
    29  C    0.002422  -0.032704   0.452734  -0.041992   5.045618  -0.026299
    30  C    0.000014   0.000200  -0.050040   0.522382  -0.026299   4.873726
    31  H   -0.000092  -0.035541   0.006677   0.349976  -0.000003  -0.046859
    32  C    0.000127  -0.039613   0.001138  -0.028998   0.520198   0.541416
    33  H   -0.000191   0.004858  -0.035122   0.000326   0.347502   0.004235
    34  H    0.000004   0.003303   0.000651  -0.040527   0.004887   0.360951
    35  H    0.000001   0.000571   0.003995   0.004702  -0.043533  -0.040316
    36  N    0.515798   0.410653  -0.081446  -0.061204   0.014007   0.004269
    37  O    0.271263  -0.051123   0.256085   0.007204  -0.054996  -0.000020
              31         32         33         34         35         36
     1  Au   0.000174  -0.000281   0.001556  -0.000013   0.000001   0.006711
     2  S    0.000005   0.000013  -0.000026   0.000000   0.000000  -0.054484
     3  P    0.000000   0.000000  -0.000004   0.000000   0.000000  -0.000005
     4  C    0.000000   0.000000   0.000000   0.000000   0.000000   0.000000
     5  C    0.000000   0.000000   0.000000   0.000000   0.000000   0.000000
     6  H    0.000000   0.000000   0.000000   0.000000   0.000000   0.000000
     7  H    0.000000   0.000000   0.000000   0.000000   0.000000   0.000000
     8  H    0.000000   0.000000   0.000000   0.000000   0.000000   0.000000
     9  H    0.000000   0.000000   0.000000   0.000000   0.000000   0.000000
    10  H    0.000000   0.000000   0.000000   0.000000   0.000000   0.000000
    11  C    0.000000   0.000000   0.000000   0.000000   0.000000   0.000000
    12  C    0.000000   0.000000   0.000000   0.000000   0.000000   0.000000
    13  H    0.000000   0.000000   0.000000   0.000000   0.000000   0.000000
    14  H    0.000000   0.000000   0.000000   0.000000   0.000000   0.000000
    15  H    0.000000   0.000000   0.000000   0.000000   0.000000   0.000000
    16  H    0.000000   0.000000   0.000000   0.000000   0.000000   0.000000
    17  H    0.000000   0.000000   0.000000   0.000000   0.000000   0.000000
    18  C    0.000000   0.000000   0.000000   0.000000   0.000000   0.000000
    19  C    0.000000   0.000000   0.000000   0.000000   0.000000   0.000000
    20  H    0.000000   0.000000   0.000000   0.000000   0.000000   0.000000
    21  H    0.000000   0.000000   0.000000   0.000000   0.000000   0.000000
    22  H    0.000000   0.000000   0.000000   0.000000   0.000000   0.000000
    23  H    0.000000   0.000000   0.000000   0.000000   0.000000   0.000000
    24  H    0.000000   0.000000   0.000000   0.000000   0.000000   0.000000
    25  C   -0.000092   0.000127  -0.000191   0.000004   0.000001   0.515798
    26  C   -0.035541  -0.039613   0.004858   0.003303   0.000571   0.410653
    27  C    0.006677   0.001138  -0.035122   0.000651   0.003995  -0.081446
    28  C    0.349976  -0.028998   0.000326  -0.040527   0.004702  -0.061204
    29  C   -0.000003   0.520198   0.347502   0.004887  -0.043533   0.014007
    30  C   -0.046859   0.541416   0.004235   0.360951  -0.040316   0.004269
    31  H    0.591052   0.004801   0.000017  -0.005751  -0.000151  -0.001388
    32  C    0.004801   4.866481  -0.041765  -0.042084   0.361698  -0.000176
    33  H    0.000017  -0.041765   0.594882  -0.000158  -0.005742  -0.000127
    34  H   -0.005751  -0.042084  -0.000158   0.604000  -0.006128  -0.000085
    35  H   -0.000151   0.361698  -0.005742  -0.006128   0.605113   0.000001
    36  N   -0.001388  -0.000176  -0.000127  -0.000085   0.000001   6.763241
    37  O   -0.000039   0.002553  -0.001866   0.000001  -0.000048  -0.091855
              37
     1  Au   0.027192
     2  S   -0.065074
     3  P   -0.000555
     4  C    0.000001
     5  C    0.000001
     6  H   -0.000002
     7  H    0.000000
     8  H    0.000000
     9  H   -0.000012
    10  H    0.000000
    11  C    0.000000
    12  C    0.000000
    13  H    0.000000
    14  H    0.000000
    15  H    0.000000
    16  H    0.000000
    17  H    0.000000
    18  C    0.000001
    19  C    0.000000
    20  H   -0.000004
    21  H    0.000000
    22  H    0.000000
    23  H    0.000000
    24  H    0.000000
    25  C    0.271263
    26  C   -0.051123
    27  C    0.256085
    28  C    0.007204
    29  C   -0.054996
    30  C   -0.000020
    31  H   -0.000039
    32  C    0.002553
    33  H   -0.001866
    34  H    0.000001
    35  H   -0.000048
    36  N   -0.091855
    37  O    8.148150
 Mulliken charges:
               1
     1  Au  -0.082703
     2  S   -0.094019
     3  P    0.445187
     4  C   -0.445037
     5  C   -0.470482
     6  H    0.188683
     7  H    0.172293
     8  H    0.164849
     9  H    0.211246
    10  H    0.159279
    11  C   -0.443280
    12  C   -0.473314
    13  H    0.195268
    14  H    0.171747
    15  H    0.166207
    16  H    0.208010
    17  H    0.158699
    18  C   -0.452544
    19  C   -0.458263
    20  H    0.197199
    21  H    0.199255
    22  H    0.170212
    23  H    0.160212
    24  H    0.160003
    25  C    0.310116
    26  C    0.180864
    27  C    0.306749
    28  C   -0.169253
    29  C   -0.186807
    30  C   -0.143637
    31  H    0.137123
    32  C   -0.145508
    33  H    0.131628
    34  H    0.120949
    35  H    0.119836
    36  N   -0.423909
    37  O   -0.446856
 Sum of Mulliken charges =   0.00000
 Mulliken charges with hydrogens summed into heavy atoms:
               1
     1  Au  -0.082703
     2  S   -0.094019
     3  P    0.445187
     4  C   -0.084061
     5  C    0.064891
    11  C   -0.076264
    12  C    0.059601
    18  C   -0.056090
    19  C    0.032164
    25  C    0.310116
    26  C    0.180864
    27  C    0.306749
    28  C   -0.032130
    29  C   -0.055179
    30  C   -0.022689
    32  C   -0.025671
    36  N   -0.423909
    37  O   -0.446856
 Electronic spatial extent (au):  <R**2>=           9231.7367
 Charge=              0.0000 electrons
 Dipole moment (field-independent basis, Debye):
    X=              9.7655    Y=              6.2746    Z=              0.0728  Tot=             11.6078
 Quadrupole moment (field-independent basis, Debye-Ang):
   XX=           -123.3797   YY=           -141.0754   ZZ=           -138.4037
   XY=             -4.1494   XZ=             -0.3620   YZ=             -0.1329
 Traceless Quadrupole moment (field-independent basis, Debye-Ang):
   XX=             10.9066   YY=             -6.7891   ZZ=             -4.1174
   XY=             -4.1494   XZ=             -0.3620   YZ=             -0.1329
 Octapole moment (field-independent basis, Debye-Ang**2):
  XXX=            183.7688  YYY=            -32.7303  ZZZ=              4.4101  XYY=             65.1071
  XXY=             12.1557  XXZ=             -2.8072  XZZ=             65.7709  YZZ=            -18.5758
  YYZ=             -0.2425  XYZ=             -0.5694
 Hexadecapole moment (field-independent basis, Debye-Ang**3):
 XXXX=          -9289.3314 YYYY=          -1915.7034 ZZZZ=           -843.2147 XXXY=           -146.0264
 XXXZ=             -0.2792 YYYX=           -130.7433 YYYZ=             -4.0294 ZZZX=             -9.0194
 ZZZY=              0.7341 XXYY=          -1938.5653 XXZZ=          -1846.7866 YYZZ=           -463.4416
 XXYZ=            -13.0624 YYXZ=              1.6024 ZZXY=             21.7968
 N-N= 1.718257609684D+03 E-N=-6.955080417636D+03  KE= 1.414028546790D+03
   1 Symmetry operations used in ECPInt.
 ECPInt:  NShTT=    7503 NPrTT=   42298 LenC2=    6169 LenP2D=   20447.
 LDataN:  DoStor=T MaxTD1= 8 Len=  415
 Calling FoFJK, ICntrl=      2127 FMM=F ISym2X=0 I1Cent= 0 IOpClX= 0 NMat=1 NMatS=1 NMatT=0.
 Defaulting to unpruned grid for atomic number  79.
 Defaulting to unpruned grid for atomic number  79.
 Defaulting to unpruned grid for atomic number  79.
 Defaulting to unpruned grid for atomic number  79.
 Defaulting to unpruned grid for atomic number  79.
 Defaulting to unpruned grid for atomic number  79.
 Defaulting to unpruned grid for atomic number  79.
 Defaulting to unpruned grid for atomic number  79.
 ***** Axes restored to original set *****
 -------------------------------------------------------------------
 Center     Atomic                   Forces (Hartrees/Bohr)
 Number     Number              X              Y              Z
 -------------------------------------------------------------------
      1       79          -0.005084271   -0.001823878   -0.000156725
      2       16           0.009607740   -0.008464578    0.000344629
      3       15          -0.010126828   -0.008169728    0.000044052
      4        6           0.002245276    0.005962577    0.000312679
      5        6          -0.001372108   -0.000343119    0.003536347
      6        1          -0.000463631    0.000889442    0.000778663
      7        1           0.000414738    0.001791211    0.001040960
      8        1          -0.000007743    0.000173116    0.000864129
      9        1           0.000080760   -0.000117608    0.000244077
     10        1           0.000303167   -0.000547115    0.000448437
     11        6           0.005375875    0.001253490    0.003414691
     12        6           0.001255274   -0.003029098   -0.001679398
     13        1           0.000511945   -0.000655738    0.000276930
     14        1           0.002029841   -0.000616252    0.000312386
     15        1           0.000541172   -0.000665462   -0.000354322
     16        1           0.000118130   -0.000248754   -0.000241174
     17        1           0.000093676   -0.000129258   -0.000693929
[...]
 0069,-0.00000739,0.00000046,-0.00000149,0.00000174,0.00001022,0.000019
 47,-0.00000448,-0.00000135,-0.00000295,0.00000557,-0.00000210,-0.00000
 057,-0.00000141,0.00001098,-0.00000397,0.00000119,0.00000427,-0.000001
 88,-0.00000069,-0.00000151,0.00000611,0.00000084,-0.00000072,0.0000014
 0,-0.00000133,0.00001265,0.00001533,0.00000652,-0.00000506,-0.00000307
 ,-0.00000984,-0.00000482,-0.00000569,0.00000896,0.00000261,-0.00000219
 ,0.00000291,0.00000516,0.00000469,-0.00000416,-0.00000005,0.00000014,0
 .00000302,0.00000271,0.00000070,0.00000111,0.00024379,0.00018289,0.000
 00058,-0.00043661,0.00207772,-0.00014181,0.01003868,0.00815950,-0.0002
 1793,-0.00025707,0.00079292,-0.00002785,-0.18316071,-0.14023716,0.0033
 0956,-0.00447687,0.00315240,-0.00022618,0.00007870,-0.00013266,0.00001
 886,-0.01388607,-0.02539431,0.00072457,0.18995991,-0.00006320,-0.00010
 811,0.00000560,0.00024193,0.00004407,0.00000273,-0.00000665,-0.0000674
 0,-0.00000088,0.00004494,-0.00000583,-0.00000340,-0.00000326,0.0000169
 5,0.00000310,0.00001303,0.00002790,-0.00000061,-0.00001242,0.00001592,
 0.00000954,0.00000797,0.00000131,0.00000438,0.00000886,-0.00002140,0.0
 0000291,-0.00001143,0.00000264,-0.00000397,0.00001130,0.00001841,0.000
 00249,-0.00000730,-0.00000349,-0.00000491,-0.00000331,0.00000076,-0.00
 000140,0.00000477,-0.00000152,0.00000229,-0.00000234,0.00000405,0.0000
 0125,0.00000132,0.00000216,0.00000005,0.00000224,-0.00000028,-0.000000
 08,0.00004783,0.00000727,0.00001340,-0.00000705,0.00001459,-0.00001658
 ,0.00000720,0.00001503,-0.00001059,-0.00000529,-0.00000213,0.00000510,
 0.00000712,0.00000246,0.00000012,0.00000277,0.00000039,0.00000080,-0.0
 0000860,-0.00000167,-0.00000017,-0.00133443,-0.00113803,0.00001347,0.0
 0377428,-0.00181539,0.00032929,-0.02393922,-0.01794013,0.00050635,0.00
 100233,-0.00057827,0.00002250,-0.13998135,-0.21989848,0.00505152,0.001
 84624,0.00104156,0.00021952,-0.00017548,0.00002648,-0.00004819,0.00481
 622,0.00903303,-0.00021572,0.15346655,0.22890679,0.00000218,0.00000492
 ,0.00001045,-0.00000803,0.00000031,0.00007330,-0.00000393,0.00001274,0
 .00007271,-0.00001318,0.00001161,-0.00001236,-0.00000773,-0.00002242,0
 .00000353,-0.00001305,-0.00000897,0.00001760,0.00000907,-0.00000474,-0
 .00000542,-0.00001172,-0.00000401,-0.00001455,-0.00000547,0.00002297,0
 .00000310,0.00001221,-0.00000136,-0.00000209,-0.00000023,-0.00000608,-
 0.00002371,0.00000403,-0.00000194,0.00000603,-0.00000549,0.00000631,-0
 .00000122,-0.00000087,-0.00000033,0.00000289,0.00000038,-0.00000135,-0
 .00000211,-0.00000036,-0.00000012,0.00000046,0.00000180,0.00000023,-0.
 00000365,0.00001928,-0.00001600,-0.00001126,-0.00000693,0.00001067,-0.
 00000465,0.00000510,0.00001004,0.00001186,0.00000728,-0.00000099,-0.00
 000498,0.00000799,0.00000307,-0.00000496,-0.00000090,-0.00000592,0.000
 00069,-0.00000581,-0.00000088,-0.00000008,0.00005446,0.00002832,-0.000
 37205,-0.00019995,0.00030825,0.00646428,0.00088861,0.00083545,0.003801
 59,-0.00003515,0.00002234,-0.00024336,0.00331538,0.00506887,-0.0326993
 3,-0.00018560,0.00023185,0.00677126,0.00002049,-0.00004725,-0.00130202
 ,-0.00033431,-0.00053287,0.00137784,-0.00359969,-0.00555929,0.02339049
 ,0.00005116,0.00004316,0.00000098,-0.00023747,0.00005938,-0.00000443,0
 .00010735,0.00006341,0.00000034,-0.00002771,-0.00001288,0.00000919,0.0
 0000685,-0.00000032,0.00000313,0.00000430,0.00000814,0.00000041,-0.000
 00537,-0.00001065,-0.00001055,-0.00000060,-0.00000519,-0.00000378,-0.0
 0000300,-0.00000098,0.00000817,-0.00000336,0.00000350,0.00000058,-0.00
 001608,-0.00002770,0.00000563,0.00000007,0.00000300,-0.00000816,0.0000
 0395,0.00000090,0.00000195,-0.00001574,0.00000584,-0.00000095,-0.00000
 704,0.00000315,0.00000075,0.00000327,-0.00000770,-0.00000076,0.0000019
 2,-0.00000199,0.00000176,-0.00002879,-0.00001882,-0.00001366,0.0000090
 3,-0.00000068,0.00001587,0.00000097,0.00000542,-0.00000486,0.00000116,
 0.00000130,-0.00000384,-0.00000577,-0.00000707,0.00000437,0.00000001,-
 0.00000037,-0.00000294,-0.00000367,0.00000134,-0.00000242,0.00040682,0
 .00009096,0.00000708,0.00165889,0.00146034,-0.00010709,0.00082924,-0.0
 0048436,0.00003021,-0.00580126,-0.00002300,-0.00007783,-0.00057337,-0.
 00386692,0.00006457,-0.32714586,0.05634973,-0.00507366,0.00082447,0.00
 027294,0.00004296,-0.01658932,0.00686084,-0.00042731,-0.00089434,0.000
 34976,-0.00002756,0.34734590,-0.00002182,-0.00006032,-0.00000076,0.000
 24598,0.00004274,-0.00000101,-0.00005963,-0.00003797,-0.00000056,0.000
 02592,0.00000594,-0.00000562,-0.00000455,0.00000337,-0.00000093,-0.000
 00042,0.00000020,-0.00000040,0.00000043,0.00000895,0.00000803,0.000001
 97,0.00000253,0.00000311,0.00000268,-0.00000308,-0.00000392,-0.0000003
 6,-0.00000083,-0.00000121,0.00000984,0.00001737,-0.00000217,-0.0000017
 3,-0.00000240,0.00000307,-0.00000255,-0.00000048,-0.00000116,0.0000087
 4,-0.00000335,0.00000098,0.00000311,-0.00000073,-0.00000011,-0.0000014
 2,0.00000395,0.00000043,-0.00000054,0.00000088,-0.00000094,0.00002512,
 0.00001165,0.00001036,-0.00000615,0.00000285,-0.00001214,-0.00000009,-
 0.00000120,0.00000024,-0.00000156,-0.00000078,0.00000271,0.00000474,0.
 00000408,-0.00000227,0.00000097,0.00000026,0.00000196,0.00000008,-0.00
 000059,0.00000123,-0.00018719,-0.00049688,-0.00000427,0.00020235,-0.00
 561354,0.00044201,-0.00003424,-0.00146249,0.00003330,0.03147388,-0.002
 00764,0.00045537,-0.00272354,-0.00339589,0.00029838,0.05640547,-0.0714
 6481,0.00194029,-0.00055268,0.00116758,-0.00018693,-0.02494794,0.00873
 638,-0.00053073,-0.00125699,0.00031609,-0.00000613,-0.06083692,0.07241
 639,0.00000197,0.00000196,-0.00003916,-0.00000964,-0.00000506,-0.00009
 194,0.00000273,0.00000397,0.00002086,0.00000114,0.00000221,-0.00000122
 ,-0.00000049,-0.00000266,0.00000003,-0.00000075,-0.00000031,0.00000098
 ,0.00000082,0.00000034,-0.00000037,-0.00000149,-0.00000143,-0.00000187
 ,-0.00000066,0.00000212,0.00000170,0.00000088,0.00000017,-0.00000002,-
 0.00000050,-0.00000164,-0.00000301,0.00000076,-0.00000065,0.00000094,-
 0.00000048,0.00000096,-0.00000027,-0.00000051,0.,0.00000044,-0.0000000
 4,-0.00000004,-0.00000014,0.00000011,-0.00000005,0.00000021,0.00000031
 ,0.00000028,-0.00000070,-0.00000308,-0.00000413,-0.00000248,-0.0000002
 9,0.00000025,0.00000147,0.00000016,0.00000141,0.00000117,0.00000124,-0
 .00000022,-0.00000091,0.00000041,0.00000025,-0.00000058,-0.00000013,-0
 .00000096,-0.00000024,-0.00000061,0.00000008,0.00000010,0.00001572,-0.
 00000123,-0.00057551,-0.00006597,0.00045433,0.00712370,0.00001402,0.00
 002881,-0.00049411,-0.00116923,0.00012343,0.00158688,0.00002702,0.0002
 8445,0.00604057,-0.00507497,0.00194019,-0.03307236,0.00007275,-0.00018
 068,-0.00411429,0.00067574,-0.00019329,0.00105892,0.00002823,0.0000117
 3,0.00053315,0.00552840,-0.00229620,0.02501394,0.00006458,0.00001043,0
 .00000134,-0.00007977,0.00020641,-0.00000536,0.00007499,0.00007653,0.0
 0000041,-0.00002866,-0.00000913,0.00000664,0.00000713,-0.00000123,0.00
 000206,0.00000324,0.00000288,0.00000148,-0.00000288,-0.00000939,-0.000
 00932,-0.00000376,-0.00000348,-0.00000572,-0.00000343,0.00000319,0.000
 00613,0.00000088,-0.00000036,0.00000141,-0.00001507,-0.00002643,0.0000
 0287,0.00000315,0.00000334,-0.00000338,0.00000395,0.00000050,0.0000017
 9,-0.00001276,0.00000475,-0.00000172,-0.00000316,0.00000034,-0.0000001
 3,0.00000141,-0.00000534,-0.00000080,0.00000039,-0.00000090,0.00000156
 ,-0.00002749,-0.00001521,-0.00001250,0.00000769,-0.00000113,0.00001521
 ,0.00000206,0.00000415,-0.00000096,0.00000157,0.00000059,-0.00000429,-
 0.00000722,-0.00000472,0.00000435,-0.00000244,-0.00000058,-0.00000438,
 0.00000054,-0.00000090,-0.00000141,-0.00064749,-0.00085973,0.00002453,
 -0.00130373,-0.00024321,0.00000482,-0.00525430,-0.00088081,-0.00009040
 ,-0.00255531,-0.00293307,0.00000866,-0.00663374,0.03086140,-0.00115868
 ,0.01095402,-0.02096793,0.00083214,0.00041521,-0.00104695,0.00003531,-
 0.09105091,0.08836505,-0.00367458,0.00130387,-0.00047819,0.00007624,0.
 00095679,0.00045434,0.00003230,0.09340389,-0.00005747,-0.00002535,0.00
 000038,0.00014565,-0.00006486,-0.00000699,-0.00009069,-0.00007050,-0.0
 0000031,0.00002830,0.00001129,-0.00000807,-0.00000709,0.00000051,-0.00
 000280,-0.00000375,-0.00000500,-0.00000098,0.00000412,0.00001019,0.000
 00991,0.00000233,0.00000454,0.00000481,0.00000335,-0.00000157,-0.00000
 697,0.00000087,-0.00000159,-0.00000095,0.00001552,0.00002698,-0.000004
 27,-0.00000196,-0.00000330,0.00000568,-0.00000408,-0.00000072,-0.00000
 193,0.00001426,-0.00000506,0.00000142,0.00000487,-0.00000178,-0.000000
 23,-0.00000205,0.00000631,0.00000073,-0.00000117,0.00000144,-0.0000017
 5,0.00002869,0.00001720,0.00001297,-0.00000852,0.00000107,-0.00001564,
 -0.00000138,-0.00000438,0.00000304,-0.00000120,-0.00000112,0.00000422,
 0.00000668,0.00000604,-0.00000449,0.00000112,0.00000046,0.00000367,0.0
 0000142,-0.00000035,0.00000189,-0.00011179,0.00039388,-0.00001956,-0.0
 0080338,0.00058608,-0.00006389,0.00042392,0.00165282,0.00015797,-0.004
 23613,-0.00145843,0.00021993,-0.00032158,-0.00150435,0.00009764,0.0106
 9326,-0.01828966,0.00078880,0.00054973,-0.00096903,0.00005518,0.088522
 86,-0.30805714,0.01053442,0.00036320,0.00075210,-0.00016113,-0.0002862
 9,0.00097856,-0.00016403,-0.09524990,0.32652509,0.00000240,0.00000189,
 0.00004918,-0.00000484,-0.00000539,-0.00033459,0.00000405,0.00000571,0
 .00000061,-0.00000569,-0.00000158,-0.00000144,-0.00000158,-0.00000394,
 0.00000260,-0.00000137,-0.00000066,0.00000280,0.00000127,-0.00000174,-
 0.00000254,-0.00000275,-0.00000178,-0.00000375,-0.00000036,0.00000418,
 0.00000224,0.00000194,-0.00000018,-0.00000067,-0.00000151,-0.00000301,
 -0.00000401,0.00000077,0.00000012,0.00000139,-0.00000088,0.00000141,-0
 .00000033,-0.00000111,0.00000012,0.00000101,-0.00000023,-0.00000026,-0
 .00000038,-0.00000004,-0.00000045,0.00000051,0.00000061,0.00000031,-0.
 00000104,0.00000545,-0.00000074,-0.00000259,-0.00000170,0.00000220,-0.
 00000138,0.00000024,0.00000233,0.00000283,0.00000248,-0.00000061,-0.00
 000116,0.00000230,0.00000135,-0.00000145,-0.00000026,-0.00000155,-0.00
 000012,-0.00000117,0.00000005,-0.00000002,0.00000282,-0.00003031,-0.00
 013824,0.00002605,-0.00005990,-0.00099225,-0.00013573,0.00014465,0.006
 02408,0.00005147,0.00023322,0.00614066,-0.00006624,0.00041989,0.001318
 80,-0.00026768,0.00044590,0.00110166,-0.00001958,0.00003863,0.00046806
 ,-0.00368402,0.01054968,-0.03186703,0.00004040,-0.00016883,-0.00396754
 ,0.00006048,-0.00015756,-0.00369082,0.00401925,-0.01150835,0.02451324,
 0.00059654,0.00317539,-0.00004949,-0.04218483,0.00561279,-0.00074145,0
 .00298518,0.00128880,0.00006721,-0.00117413,-0.00033087,0.00032049,0.0
 0016460,-0.00013674,0.00007921,0.00005411,0.00008182,0.00003081,-0.000
 05685,-0.00038958,-0.00040534,-0.00007683,-0.00011559,-0.00014933,-0.0
 0011433,0.00010640,0.00021245,0.00000130,0.00005136,0.00002881,-0.0004
 1575,-0.00077760,0.00011404,0.00005860,0.00011452,-0.00015638,0.000100
 28,0.00003399,0.00004609,-0.00039889,0.00015598,-0.00004510,-0.0001477
 7,0.00004086,0.00001479,0.00006895,-0.00018483,-0.00002388,0.00002229,
 -0.00004752,0.00004284,-0.00111841,-0.00055966,-0.00049908,0.00028255,
 -0.00007905,0.00056616,0.00001472,0.00008136,-0.00007729,0.00003783,0.
 00004813,-0.00010620,-0.00021976,-0.00019558,0.00010766,-0.00002761,-0
 .00000767,-0.00009206,-0.00002876,0.00002171,-0.00005564,-0.41352346,-
 0.11397570,0.00031171,-0.10923394,0.08011221,-0.00328475,-0.00492204,0
 .02532674,-0.00110066,-0.02619296,0.04452437,-0.00181439,0.00009497,-0
 .00247518,0.00006441,-0.00304836,-0.01323017,0.00036067,0.00311128,-0.
 00136683,0.00012278,0.00252298,0.00737910,-0.00021116,0.00028704,0.000
 34022,-0.00000916,-0.00070122,0.00171634,-0.00007568,0.00054690,0.0002
 0924,-0.00000355,0.62457365,0.00120645,-0.00300859,0.00005249,0.018553
 95,0.01026300,0.00004043,-0.00071892,0.00023053,-0.00001986,0.00058320
 ,0.00013730,-0.00013543,-0.00003576,0.00007848,-0.00003214,0.00000671,
 0.00003283,-0.00001950,-0.00001522,0.00018320,0.00018679,0.00003360,0.
 00002737,0.00006008,0.00004882,-0.00007423,-0.00003198,-0.00003060,-0.
 00000756,-0.00001413,0.00010484,0.00022549,-0.00001817,-0.00004627,-0.
 00004710,0.00002856,-0.00002641,-0.00001501,-0.00000924,0.00011436,-0.
 00004531,0.00002586,0.00002862,-0.00000744,-0.00000297,-0.00000251,0.0
 0004088,-0.00000087,-0.00000413,0.00001201,-0.00001220,0.00050679,0.00
 020633,0.00021046,-0.00011009,0.00005254,-0.00024744,0.00000608,0.0000
 1369,0.00000693,-0.00000397,-0.00001662,0.00002608,0.00009295,0.000068
 76,-0.00003671,0.00001334,-0.00000044,0.00003582,-0.00001158,-0.000007
 39,0.00001607,-0.07196462,-0.11765037,0.00067281,0.04278352,-0.2261260
 5,0.00613399,-0.01960050,-0.06226767,0.00246128,0.01921981,-0.00305848
 ,0.00027716,-0.00451081,-0.00362184,0.00018598,-0.00112418,0.00900644,
 -0.00011435,0.00042794,0.00052430,-0.00014425,-0.00431117,-0.00303216,
 0.00001304,0.00084928,-0.00191894,0.00007398,-0.00005088,0.00036842,0.
 00001936,0.00017595,-0.00014376,0.00000533,0.03765439,0.45455000,-0.00
 003850,0.00013370,-0.00026963,-0.00110726,-0.00014041,0.00462875,0.000
 05616,-0.00000089,0.00006205,0.00000526,0.00002459,0.00000877,0.000020
 57,0.00001253,-0.00000770,0.00000217,0.00000083,0.00000379,0.00000082,
 0.00000340,0.00000992,-0.00000069,-0.00000345,0.00000256,-0.00001192,0
 .00000294,-0.00001151,0.00000670,0.00000430,0.00000628,-0.00001091,-0.
 00001382,0.00000192,0.00000156,-0.00001269,-0.00000742,0.00001504,-0.0
 0000236,0.00000465,-0.00000674,0.00000507,0.00000046,0.00000282,0.0000
 0295,0.00000286,0.00000476,0.00000588,-0.00001104,-0.00000900,-0.00000
 388,0.00000733,-0.00008569,-0.00004940,-0.00001069,0.00000520,-0.00001
 220,0.00004057,-0.00000193,-0.00000237,-0.00000607,-0.00001066,-0.0000
 0383,0.00000621,-0.00001476,-0.00001487,0.00000771,0.00000232,0.000005
 02,-0.00000147,0.00000164,0.00000053,-0.00000265,-0.00121133,0.0002515
 9,-0.07571246,-0.00196665,0.00654218,-0.06194903,0.00043610,0.00298029
 ,0.01515794,-0.00094079,0.00054315,-0.00089466,0.00012718,0.00020531,0
 .00322807,-0.00004910,-0.00024616,0.00592859,0.00005815,-0.00016263,-0
 .00375323,0.00018190,0.00014409,-0.00126557,-0.00002628,0.00006839,-0.
 00004278,-0.00001564,0.00003677,0.00092517,0.00000099,0.00000424,-0.00
 008322,0.00449715,-0.01233461,0.08644506,-0.00115559,-0.00041279,0.000
 00260,0.00244541,0.02686039,-0.00092522,0.00104345,0.00172956,-0.00005
 839,-0.00036806,-0.00012281,0.00014092,0.00009149,-0.00001981,0.000028
 34,0.00005290,0.00005609,0.00000230,-0.00004303,-0.00014419,-0.0001448
 3,-0.00003269,-0.00006368,-0.00007739,-0.00003348,0.00003652,0.0001298
 6,-0.00001061,0.00001984,0.00002284,-0.00035087,-0.00057534,0.00009234
 ,0.00005185,0.00007324,-0.00009277,0.00009364,0.00001415,0.00004136,-0
 .00027339,0.00010959,-0.00002355,-0.00009324,0.00001015,0.00000353,0.0
 0006089,-0.00014756,-0.00004485,-0.00000285,-0.00003672,0.00003469,-0.
 00033800,-0.00020941,-0.00020172,0.00011781,-0.00000850,0.00021971,0.0
 0001044,0.00003847,-0.00001793,0.00001368,0.00001164,-0.00005372,-0.00
 008859,-0.00008728,0.00006112,-0.00001709,-0.00000580,-0.00004968,-0.0
 0001282,0.00000758,-0.00003247,-0.10278688,-0.00170387,-0.00036195,-0.
 07192980,-0.02163343,-0.00013766,-0.23718809,0.00470697,-0.00213971,-0
 .00374558,-0.00365741,0.00003399,-0.01401027,0.01922235,-0.00078352,-0
 .00484033,-0.00533711,0.00014879,-0.00208837,0.00079801,-0.00004975,0.
 01061423,-0.00108863,0.00008600,0.00112765,0.00004267,0.00005062,-0.00
 015219,0.00005838,-0.00000019,-0.00012015,0.00016905,-0.00002168,-0.03
 193786,-0.01984300,0.00008135,0.45589639,-0.00089950,-0.00053339,-0.00
 005135,0.00839292,-0.02813509,0.00120051,-0.00070642,-0.00116247,-0.00
 002920,0.00056849,0.00009899,-0.00012569,-0.00005064,0.00013783,-0.000
 01080,0.00000228,0.00010485,-0.00001643,-0.00003552,0.00020498,0.00018
 199,0.00006366,0.00005172,0.00008025,0.00011292,-0.00014066,-0.0000324
 2,-0.00007386,-0.00000782,-0.00003504,0.00028565,0.00046765,-0.0000240
 1,-0.00009263,-0.00005966,0.00002783,-0.00005950,-0.00001328,-0.000021
 16,0.00020213,-0.00008180,0.00004379,0.00003232,0.00000178,0.00000672,
 -0.00000634,0.00005744,0.00000176,-0.00000152,0.00001234,-0.00002131,0
 .00057566,0.00024979,0.00024126,-0.00013314,0.00009209,-0.00028028,0.0
 0000231,0.00004664,-0.00002584,-0.00002652,-0.00003343,0.00007439,0.00
 011263,0.00007853,-0.00004523,0.00002945,0.00000784,0.00004647,-0.0000
 3725,-0.00001156,0.00002090,-0.04218448,-0.15697073,0.00272045,0.01916
 446,-0.01612767,0.00114192,0.04724205,-0.10931086,0.00240725,-0.008202
 08,0.00250139,-0.00000612,0.04456966,-0.00325325,0.00051509,0.00410056
 ,-0.00589970,0.00019193,0.00001173,0.00018128,-0.00000561,-0.00063716,
 -0.00240021,0.00028845,-0.00188026,0.00325112,-0.00027013,0.00005962,0
 .00046477,-0.00002370,0.00256871,-0.00036661,0.00008990,-0.07420311,-0
 .05497262,0.00202585,0.00113270,0.37146980,-0.00002516,0.00001691,0.00
 044363,-0.00024546,0.00133216,0.00279749,0.00004874,0.00004760,-0.0001
 1305,-0.00002345,-0.00004049,0.00001439,0.00003986,0.00006156,0.000005
 04,0.00001504,0.00001252,-0.00001542,-0.00001610,-0.00000754,0.0000038
 6,0.00000614,0.00000179,0.00001120,0.00003093,-0.00003038,0.00001417,-
 0.00002885,-0.00000684,0.00000393,-0.00001490,-0.00000995,0.00004107,-
 0.00000249,0.00001576,-0.00001247,0.00001080,-0.00001096,0.00000027,-0
 .00000759,0.00000258,-0.00000852,-0.00000677,-0.00000188,0.00000156,-0
 .00000459,-0.00000519,0.00000432,-0.00000176,-0.00000001,0.00000589,-0
 .00004014,0.00002838,0.00000008,0.00001628,-0.00001987,0.00001808,-0.0
 0001177,-0.00003240,-0.00001483,-0.00001402,0.00000450,0.00000618,-0.0
 0001074,-0.00000522,0.00000568,0.00000156,0.00000877,-0.00000165,0.000
 01118,0.00000421,-0.00000158,0.00100870,0.00324207,-0.06506552,-0.0015
 4660,0.00065667,0.00984193,-0.00353075,0.00190530,-0.05519958,0.000189
 62,0.00003298,0.00463810,-0.00168793,0.00027247,-0.00169915,-0.0001793
 2,0.00008688,-0.00144401,-0.00002312,0.00000126,-0.00004695,0.00008539
 ,0.00027711,0.00584473,0.00011458,-0.00024191,-0.00382311,-0.00000140,
 -0.00002324,-0.00022023,-0.00010587,0.00006544,0.00146487,0.00191331,0
 .00264136,0.02755044,0.00403664,-0.01028239,0.07494916\\-0.00000061,-0
 .00000807,0.00000553,0.00001634,0.00001046,-0.00000182,-0.00000332,0.0
 0000529,-0.00000407,-0.00001185,0.00000624,-0.00000071,0.00000384,0.00
 000960,-0.00001428,0.00000169,0.00000210,-0.00000062,0.00000192,0.0000
 0504,-0.00000728,-0.00000084,0.00000746,0.00000079,-0.00000116,0.00000
 667,0.00000057,-0.00000014,0.00000835,0.00000308,0.00000056,-0.0000029
 5,0.00000733,-0.00000023,0.00001215,0.00000933,0.00000574,0.00000400,-
 0.00000179,0.00000019,0.00001070,0.00000282,0.00000245,0.00000211,0.00
 000047,0.00000206,-0.00000006,0.00000568,0.00000339,-0.00000225,0.0000
 0010,0.00000726,-0.00000616,-0.00000307,-0.00001070,-0.00000922,0.0000
 0144,-0.00000204,0.00000126,-0.00000185,-0.00000339,0.00000085,0.00000
 135,0.00000057,0.00000333,-0.00000722,-0.00000129,0.00000479,-0.000005
 87,0.00000092,0.00000232,-0.00000653,-0.00000728,-0.00003005,0.0000413
 2,-0.00000591,0.00002481,0.00000742,-0.00001349,-0.00000806,0.00000322
 ,-0.00000187,-0.00001587,0.00000382,0.00000514,0.00000471,-0.00000169,
 -0.00000181,-0.00000224,0.00000065,0.00000246,-0.00000539,0.00000387,-
 0.00000377,-0.00000574,-0.00000083,-0.00000443,-0.00000392,-0.00000391
 ,-0.00000090,-0.00000663,-0.00000050,-0.00000431,-0.00000571,-0.000004
 24,0.00002845,-0.00000888,-0.00001449,-0.00000364,-0.00001102,-0.00001
 802\\\@


 WE HAVE LEARNED THAT NOTHING IS SIMPLE AND
 RATIONAL EXCEPT WHAT WE OURSELVES HAVE INVENTED;
 THAT GOD THINKS IN TERMS NEITHER OF EUCLID OR RIEMANN; THAT SCIENCE HAS "EXPLAINED" NOTHING;
 THAT THE MORE WE KNOW THE MORE FANTASTIC THE WORLD BECOMES
 AND THE PROFOUNDER THE SURROUNDING DARKNESS.
   --  ALDOUS HUXLEY
 Job cpu time:       0 days  0 hours 44 minutes 53.2 seconds.
 File lengths (MBytes):  RWF=    502 Int=      0 D2E=      0 Chk=     10 Scr=      1
 Normal termination of Gaussian 09 at Tue May  2 07:43:40 2023.
