 Entering Gaussian System, Link 0=g09
 Input=AF11-helio.com
 Output=AF11-helio.log
 Initial command:
 /home/scr/programs/g09/l1.exe "/home/scr/helius/Gau-25494.inp" -scrdir="/home/scr/helius/"
 Entering Link 1 = /home/scr/programs/g09/l1.exe PID=     25496.
  
 Copyright (c) 1988,1990,1992,1993,1995,1998,2003,2009,2013,
            Gaussian, Inc.  All Rights Reserved.
  
 This is part of the Gaussian(R) 09 program.  It is based on
 the Gaussian(R) 03 system (copyright 2003, Gaussian, Inc.),
 the Gaussian(R) 98 system (copyright 1998, Gaussian, Inc.),
 the Gaussian(R) 94 system (copyright 1995, Gaussian, Inc.),
 the Gaussian 92(TM) system (copyright 1992, Gaussian, Inc.),
 the Gaussian 90(TM) system (copyright 1990, Gaussian, Inc.),
 the Gaussian 88(TM) system (copyright 1988, Gaussian, Inc.),
 the Gaussian 86(TM) system (copyright 1986, Carnegie Mellon
 University), and the Gaussian 82(TM) system (copyright 1983,
 Carnegie Mellon University). Gaussian is a federally registered
 trademark of Gaussian, Inc.
  
 This software contains proprietary and confidential information,
 including trade secrets, belonging to Gaussian, Inc.
  
 This software is provided under written license and may be
 used, copied, transmitted, or stored only in accord with that
 written license.
  
 The following legend is applicable only to US Government
 contracts under FAR:
  
                    RESTRICTED RIGHTS LEGEND
  
 Use, reproduction and disclosure by the US Government is
 subject to restrictions as set forth in subparagraphs (a)
 and (c) of the Commercial Computer Software - Restricted
 Rights clause in FAR 52.227-19.
  
 Gaussian, Inc.
 340 Quinnipiac St., Bldg. 40, Wallingford CT 06492
  
  
 ---------------------------------------------------------------
 Warning -- This program may not be used in any manner that
 competes with the business of Gaussian, Inc. or will provide
 assistance to any competitor of Gaussian, Inc.  The licensee
 of this program is prohibited from giving any competitor of
 Gaussian, Inc. access to this program.  By using this program,
 the user acknowledges that Gaussian, Inc. is engaged in the
 business of creating and licensing software in the field of
 computational chemistry and represents and warrants to the
 licensee that it is not a competitor of Gaussian, Inc. and that
 it will not use this program in any manner prohibited above.
 ---------------------------------------------------------------
  

 Cite this work as:
 Gaussian 09, Revision D.01,
 M. J. Frisch, G. W. Trucks, H. B. Schlegel, G. E. Scuseria, 
 M. A. Robb, J. R. Cheeseman, G. Scalmani, V. Barone, B. Mennucci, 
 G. A. Petersson, H. Nakatsuji, M. Caricato, X. Li, H. P. Hratchian, 
 A. F. Izmaylov, J. Bloino, G. Zheng, J. L. Sonnenberg, M. Hada, 
 M. Ehara, K. Toyota, R. Fukuda, J. Hasegawa, M. Ishida, T. Nakajima, 
 Y. Honda, O. Kitao, H. Nakai, T. Vreven, J. A. Montgomery, Jr., 
 J. E. Peralta, F. Ogliaro, M. Bearpark, J. J. Heyd, E. Brothers, 
 K. N. Kudin, V. N. Staroverov, T. Keith, R. Kobayashi, J. Normand, 
 K. Raghavachari, A. Rendell, J. C. Burant, S. S. Iyengar, J. Tomasi, 
 M. Cossi, N. Rega, J. M. Millam, M. Klene, J. E. Knox, J. B. Cross, 
 V. Bakken, C. Adamo, J. Jaramillo, R. Gomperts, R. E. Stratmann, 
 O. Yazyev, A. J. Austin, R. Cammi, C. Pomelli, J. W. Ochterski, 
 R. L. Martin, K. Morokuma, V. G. Zakrzewski, G. A. Voth, 
 P. Salvador, J. J. Dannenberg, S. Dapprich, A. D. Daniels, 
 O. Farkas, J. B. Foresman, J. V. Ortiz, J. Cioslowski, 
 and D. J. Fox, Gaussian, Inc., Wallingford CT, 2013.
 
 ******************************************
 Gaussian 09:  EM64L-G09RevD.01 24-Apr-2013
                17-Apr-2023 
 ******************************************
 %mem=30000MB
 %nprocshared=8
 Will use up to    8 processors via shared memory.
 ----------------------------------------
 # opt freq=noraman b3lyp/gen pseudo=read
 ----------------------------------------
 1/14=-1,18=20,19=15,26=3,38=1/1,3;
 2/9=110,12=2,17=6,18=5,40=1/2;
 3/5=7,11=2,16=1,17=8,25=1,30=1,71=1,74=-5/1,2,3;
 4//1;
 5/5=2,38=5/2;
 6/7=2,8=2,9=2,10=2,28=1/1;
 7//1,2,3,16;
 1/14=-1,18=20,19=15,26=3/3(2);
 2/9=110/2;
 99//99;
 2/9=110/2;
 3/5=7,6=1,11=2,16=1,17=8,25=1,30=1,71=1,74=-5,82=7/1,2,3;
 4/5=5,16=3,69=1/1;
 5/5=2,38=5/2;
 7//1,2,3,16;
 1/14=-1,18=20,19=15,26=3/3(-5);
 2/9=110/2;
 6/7=2,8=2,9=2,10=2,19=2,28=1/1;
 99/9=1/99;
 -------------------
 Title Card Required
 -------------------
 Symbolic Z-matrix:
 Charge =  0 Multiplicity = 1
 79                   0    -0.40176  -0.10524  -0.45393 
 16                   0     1.82198  -0.02642  -1.15002 
 15                   0    -2.61788  -0.22545   0.11422 
 6                    0    -3.68089   0.74279  -1.01721 
 6                    0    -5.16596   0.77161  -0.66837 
 6                    0    -3.29366  -1.92611   0.07486 
 6                    0    -2.50217  -2.92712   0.90661 
 6                    0    -2.96361   0.4016    1.80344 
 6                    0    -2.56262   1.8604    2.01179 
 1                    0    -3.26029   1.75189  -1.0426 
 1                    0    -3.51617   0.32208  -2.01827 
 1                    0    -5.7028    1.37131  -1.40757 
 1                    0    -5.3438    1.22079   0.31232 
 1                    0    -5.60782  -0.22854  -0.6708 
 1                    0    -4.33499  -1.87939   0.40424 
 1                    0    -3.29652  -2.23518  -0.97784 
 1                    0    -2.94736  -3.92001   0.7981 
 1                    0    -2.51086  -2.67294   1.96827 
 1                    0    -1.45667  -2.98391   0.5807 
 1                    0    -2.40895  -0.24543   2.48567 
 1                    0    -4.03177   0.24739   2.00614 
 1                    0    -1.49564   2.01293   1.80639 
 1                    0    -2.75161   2.16357   3.04793 
 1                    0    -3.13565   2.52561   1.35485 
 6                    0     2.76933   0.59795   0.29392 
 1                    0     2.27825   0.26894   1.21244 
 6                    0     4.18716   0.05582   0.22346 
 1                    0     4.63296   0.22755  -0.75707 
 6                    0     2.76114   2.1019    0.23712 
 8                    0     3.59668   2.77826  -0.31931 
 8                    0     1.70744   2.6279    0.87058 
 1                    0     1.73951   3.58379   0.75302 
 1                    0     4.83715   0.56835   0.95407 
 6                    0     4.23282  -1.40294   0.57539 
 8                    0     3.51221  -1.95682   1.36923 
 8                    0     5.21521  -2.03389  -0.06444 
 1                    0     5.22713  -2.95978   0.24338 
 

 GradGradGradGradGradGradGradGradGradGradGradGradGradGradGradGradGradGrad
 Berny optimization.
 Initialization pass.
                           ----------------------------
                           !    Initial Parameters    !
                           ! (Angstroms and Degrees)  !
 --------------------------                            --------------------------
 ! Name  Definition              Value          Derivative Info.                !
 --------------------------------------------------------------------------------
 ! R1    R(1,2)                  2.3315         estimate D2E/DX2                !
 ! R2    R(1,3)                  2.2909         estimate D2E/DX2                !
 ! R3    R(2,25)                 1.8364         estimate D2E/DX2                !
 ! R4    R(3,4)                  1.8296         estimate D2E/DX2                !
 ! R5    R(3,6)                  1.8304         estimate D2E/DX2                !
 ! R6    R(3,8)                  1.8347         estimate D2E/DX2                !
 ! R7    R(4,5)                  1.5258         estimate D2E/DX2                !
 ! R8    R(4,10)                 1.0935         estimate D2E/DX2                !
 ! R9    R(4,11)                 1.0983         estimate D2E/DX2                !
 ! R10   R(5,12)                 1.0928         estimate D2E/DX2                !
 ! R11   R(5,13)                 1.0932         estimate D2E/DX2                !
 ! R12   R(5,14)                 1.0934         estimate D2E/DX2                !
 ! R13   R(6,7)                  1.5232         estimate D2E/DX2                !
 ! R14   R(6,15)                 1.0932         estimate D2E/DX2                !
 ! R15   R(6,16)                 1.0971         estimate D2E/DX2                !
 ! R16   R(7,17)                 1.0935         estimate D2E/DX2                !
 ! R17   R(7,18)                 1.0917         estimate D2E/DX2                !
 ! R18   R(7,19)                 1.0966         estimate D2E/DX2                !
 ! R19   R(8,9)                  1.5272         estimate D2E/DX2                !
 ! R20   R(8,20)                 1.0917         estimate D2E/DX2                !
 ! R21   R(8,21)                 1.0981         estimate D2E/DX2                !
 ! R22   R(9,22)                 1.0972         estimate D2E/DX2                !
 ! R23   R(9,23)                 1.096          estimate D2E/DX2                !
 ! R24   R(9,24)                 1.0966         estimate D2E/DX2                !
 ! R25   R(25,26)                1.0923         estimate D2E/DX2                !
 ! R26   R(25,27)                1.5196         estimate D2E/DX2                !
 ! R27   R(25,29)                1.505          estimate D2E/DX2                !
 ! R28   R(27,28)                1.0907         estimate D2E/DX2                !
 ! R29   R(27,33)                1.1041         estimate D2E/DX2                !
 ! R30   R(27,34)                1.5013         estimate D2E/DX2                !
 ! R31   R(29,30)                1.2105         estimate D2E/DX2                !
 ! R32   R(29,31)                1.3372         estimate D2E/DX2                !
 ! R33   R(31,32)                0.9636         estimate D2E/DX2                !
 ! R34   R(34,35)                1.2067         estimate D2E/DX2                !
 ! R35   R(34,36)                1.3314         estimate D2E/DX2                !
 ! R36   R(36,37)                0.9758         estimate D2E/DX2                !
 ! A1    A(1,2,25)             105.5916         estimate D2E/DX2                !
 ! A2    A(1,3,4)              112.3886         estimate D2E/DX2                !
 ! A3    A(1,3,6)              113.6126         estimate D2E/DX2                !
 ! A4    A(1,3,8)              113.1213         estimate D2E/DX2                !
 ! A5    A(4,3,6)              105.3009         estimate D2E/DX2                !
 ! A6    A(4,3,8)              106.201          estimate D2E/DX2                !
 ! A7    A(6,3,8)              105.5315         estimate D2E/DX2                !
 ! A8    A(3,4,5)              115.7285         estimate D2E/DX2                !
 ! A9    A(3,4,10)             106.2146         estimate D2E/DX2                !
 ! A10   A(3,4,11)             105.8904         estimate D2E/DX2                !
 ! A11   A(5,4,10)             111.2376         estimate D2E/DX2                !
 ! A12   A(5,4,11)             111.1982         estimate D2E/DX2                !
 ! A13   A(10,4,11)            105.9401         estimate D2E/DX2                !
 ! A14   A(4,5,12)             109.503          estimate D2E/DX2                !
 ! A15   A(4,5,13)             111.789          estimate D2E/DX2                !
 ! A16   A(4,5,14)             112.0584         estimate D2E/DX2                !
 ! A17   A(12,5,13)            107.5415         estimate D2E/DX2                !
 ! A18   A(12,5,14)            107.5741         estimate D2E/DX2                !
 ! A19   A(13,5,14)            108.185          estimate D2E/DX2                !
 ! A20   A(3,6,7)              114.0162         estimate D2E/DX2                !
 ! A21   A(3,6,15)             107.7876         estimate D2E/DX2                !
 ! A22   A(3,6,16)             106.459          estimate D2E/DX2                !
 ! A23   A(7,6,15)             111.0093         estimate D2E/DX2                !
 ! A24   A(7,6,16)             109.8862         estimate D2E/DX2                !
 ! A25   A(15,6,16)            107.3771         estimate D2E/DX2                !
 ! A26   A(6,7,17)             109.3269         estimate D2E/DX2                !
 ! A27   A(6,7,18)             111.9547         estimate D2E/DX2                !
 ! A28   A(6,7,19)             111.5393         estimate D2E/DX2                !
 ! A29   A(17,7,18)            107.7379         estimate D2E/DX2                !
 ! A30   A(17,7,19)            108.1577         estimate D2E/DX2                !
 ! A31   A(18,7,19)            107.9793         estimate D2E/DX2                !
 ! A32   A(3,8,9)              113.7409         estimate D2E/DX2                !
 ! A33   A(3,8,20)             106.0861         estimate D2E/DX2                !
 ! A34   A(3,8,21)             107.7735         estimate D2E/DX2                !
 ! A35   A(9,8,20)             110.3339         estimate D2E/DX2                !
 ! A36   A(9,8,21)             111.3685         estimate D2E/DX2                !
 ! A37   A(20,8,21)            107.1955         estimate D2E/DX2                !
 ! A38   A(8,9,22)             111.2589         estimate D2E/DX2                !
 ! A39   A(8,9,23)             110.361          estimate D2E/DX2                !
 ! A40   A(8,9,24)             111.1329         estimate D2E/DX2                !
 ! A41   A(22,9,23)            107.8306         estimate D2E/DX2                !
 ! A42   A(22,9,24)            108.16           estimate D2E/DX2                !
 ! A43   A(23,9,24)            107.9665         estimate D2E/DX2                !
 ! A44   A(2,25,26)            109.0785         estimate D2E/DX2                !
 ! A45   A(2,25,27)            108.8794         estimate D2E/DX2                !
 ! A46   A(2,25,29)            107.8951         estimate D2E/DX2                !
 ! A47   A(26,25,27)           110.5494         estimate D2E/DX2                !
 ! A48   A(26,25,29)           109.2857         estimate D2E/DX2                !
 ! A49   A(27,25,29)           111.0902         estimate D2E/DX2                !
 ! A50   A(25,27,28)           111.5226         estimate D2E/DX2                !
 ! A51   A(25,27,33)           110.6705         estimate D2E/DX2                !
 ! A52   A(25,27,34)           111.356          estimate D2E/DX2                !
 ! A53   A(28,27,33)           106.3304         estimate D2E/DX2                !
 ! A54   A(28,27,34)           110.5668         estimate D2E/DX2                !
 ! A55   A(33,27,34)           106.1429         estimate D2E/DX2                !
 ! A56   A(25,29,30)           124.8858         estimate D2E/DX2                !
 ! A57   A(25,29,31)           112.3009         estimate D2E/DX2                !
 ! A58   A(30,29,31)           122.8117         estimate D2E/DX2                !
 ! A59   A(29,31,32)           107.8282         estimate D2E/DX2                !
 ! A60   A(27,34,35)           125.5933         estimate D2E/DX2                !
 ! A61   A(27,34,36)           111.7311         estimate D2E/DX2                !
 ! A62   A(35,34,36)           122.6326         estimate D2E/DX2                !
 ! A63   A(34,36,37)           107.883          estimate D2E/DX2                !
 ! A64   L(2,1,3,19,-1)        179.6903         estimate D2E/DX2                !
 ! A65   L(2,1,3,19,-2)        183.5276         estimate D2E/DX2                !
 ! D1    D(25,2,3,4)           124.0593         estimate D2E/DX2                !
 ! D2    D(25,2,3,6)          -117.6481         estimate D2E/DX2                !
 ! D3    D(25,2,3,8)             3.3053         estimate D2E/DX2                !
 ! D4    D(1,2,25,26)           31.2871         estimate D2E/DX2                !
 ! D5    D(1,2,25,27)          152.0049         estimate D2E/DX2                !
 ! D6    D(1,2,25,29)          -87.3277         estimate D2E/DX2                !
 ! D7    D(1,3,4,5)           -177.1186         estimate D2E/DX2                !
 ! D8    D(1,3,4,10)           -53.1395         estimate D2E/DX2                !
 ! D9    D(1,3,4,11)            59.204          estimate D2E/DX2                !
 ! D10   D(6,3,4,5)             58.6994         estimate D2E/DX2                !
 ! D11   D(6,3,4,10)          -177.3215         estimate D2E/DX2                !
 ! D12   D(6,3,4,11)           -64.978          estimate D2E/DX2                !
 ! D13   D(8,3,4,5)            -52.9286         estimate D2E/DX2                !
 ! D14   D(8,3,4,10)            71.0506         estimate D2E/DX2                !
 ! D15   D(8,3,4,11)          -176.606          estimate D2E/DX2                !
 ! D16   D(1,3,6,7)             53.6773         estimate D2E/DX2                !
 ! D17   D(1,3,6,15)           177.3985         estimate D2E/DX2                !
 ! D18   D(1,3,6,16)           -67.6508         estimate D2E/DX2                !
 ! D19   D(4,3,6,7)            177.0831         estimate D2E/DX2                !
 ! D20   D(4,3,6,15)           -59.1958         estimate D2E/DX2                !
 ! D21   D(4,3,6,16)            55.7549         estimate D2E/DX2                !
 ! D22   D(8,3,6,7)            -70.8149         estimate D2E/DX2                !
 ! D23   D(8,3,6,15)            52.9063         estimate D2E/DX2                !
 ! D24   D(8,3,6,16)           167.857          estimate D2E/DX2                !
 ! D25   D(1,3,8,9)             59.4132         estimate D2E/DX2                !
 ! D26   D(1,3,8,20)           -62.0477         estimate D2E/DX2                !
 ! D27   D(1,3,8,21)          -176.6011         estimate D2E/DX2                !
 ! D28   D(4,3,8,9)            -64.3206         estimate D2E/DX2                !
 ! D29   D(4,3,8,20)           174.2185         estimate D2E/DX2                !
 ! D30   D(4,3,8,21)            59.6652         estimate D2E/DX2                !
 ! D31   D(6,3,8,9)           -175.7875         estimate D2E/DX2                !
 ! D32   D(6,3,8,20)            62.7516         estimate D2E/DX2                !
 ! D33   D(6,3,8,21)           -51.8017         estimate D2E/DX2                !
 ! D34   D(3,4,5,12)          -179.7998         estimate D2E/DX2                !
 ! D35   D(3,4,5,13)            61.127          estimate D2E/DX2                !
 ! D36   D(3,4,5,14)           -60.5161         estimate D2E/DX2                !
 ! D37   D(10,4,5,12)           58.8797         estimate D2E/DX2                !
 ! D38   D(10,4,5,13)          -60.1935         estimate D2E/DX2                !
 ! D39   D(10,4,5,14)          178.1634         estimate D2E/DX2                !
 ! D40   D(11,4,5,12)          -58.9439         estimate D2E/DX2                !
 ! D41   D(11,4,5,13)         -178.0171         estimate D2E/DX2                !
 ! D42   D(11,4,5,14)           60.3397         estimate D2E/DX2                !
 ! D43   D(3,6,7,17)          -177.8338         estimate D2E/DX2                !
 ! D44   D(3,6,7,18)            62.8598         estimate D2E/DX2                !
 ! D45   D(3,6,7,19)           -58.2649         estimate D2E/DX2                !
 ! D46   D(15,6,7,17)           60.2029         estimate D2E/DX2                !
 ! D47   D(15,6,7,18)          -59.1036         estimate D2E/DX2                !
 ! D48   D(15,6,7,19)          179.7718         estimate D2E/DX2                !
 ! D49   D(16,6,7,17)          -58.4259         estimate D2E/DX2                !
 ! D50   D(16,6,7,18)         -177.7324         estimate D2E/DX2                !
 ! D51   D(16,6,7,19)           61.143          estimate D2E/DX2                !
 ! D52   D(3,8,9,22)           -57.8418         estimate D2E/DX2                !
 ! D53   D(3,8,9,23)          -177.5014         estimate D2E/DX2                !
 ! D54   D(3,8,9,24)            62.7503         estimate D2E/DX2                !
 ! D55   D(20,8,9,22)           61.2234         estimate D2E/DX2                !
 ! D56   D(20,8,9,23)          -58.4363         estimate D2E/DX2                !
 ! D57   D(20,8,9,24)         -178.1845         estimate D2E/DX2                !
 ! D58   D(21,8,9,22)         -179.8591         estimate D2E/DX2                !
 ! D59   D(21,8,9,23)           60.4812         estimate D2E/DX2                !
 ! D60   D(21,8,9,24)          -59.267          estimate D2E/DX2                !
 ! D61   D(2,25,27,28)          50.391          estimate D2E/DX2                !
 ! D62   D(2,25,27,33)         168.5444         estimate D2E/DX2                !
 ! D63   D(2,25,27,34)         -73.6422         estimate D2E/DX2                !
 ! D64   D(26,25,27,28)        170.2005         estimate D2E/DX2                !
 ! D65   D(26,25,27,33)        -71.6461         estimate D2E/DX2                !
 ! D66   D(26,25,27,34)         46.1673         estimate D2E/DX2                !
 ! D67   D(29,25,27,28)        -68.2912         estimate D2E/DX2                !
 ! D68   D(29,25,27,33)         49.8622         estimate D2E/DX2                !
 ! D69   D(29,25,27,34)        167.6756         estimate D2E/DX2                !
 ! D70   D(2,25,29,30)         -90.6515         estimate D2E/DX2                !
 ! D71   D(2,25,29,31)          88.901          estimate D2E/DX2                !
 ! D72   D(26,25,29,30)        150.8662         estimate D2E/DX2                !
 ! D73   D(26,25,29,31)        -29.5813         estimate D2E/DX2                !
 ! D74   D(27,25,29,30)         28.6216         estimate D2E/DX2                !
 ! D75   D(27,25,29,31)       -151.8259         estimate D2E/DX2                !
 ! D76   D(25,27,34,35)        -32.9006         estimate D2E/DX2                !
 ! D77   D(25,27,34,36)        149.4424         estimate D2E/DX2                !
 ! D78   D(28,27,34,35)       -157.4728         estimate D2E/DX2                !
 ! D79   D(28,27,34,36)         24.8701         estimate D2E/DX2                !
 ! D80   D(33,27,34,35)         87.6137         estimate D2E/DX2                !
 ! D81   D(33,27,34,36)        -90.0434         estimate D2E/DX2                !
 ! D82   D(25,29,31,32)       -176.9084         estimate D2E/DX2                !
 ! D83   D(30,29,31,32)          2.6548         estimate D2E/DX2                !
 ! D84   D(27,34,36,37)        176.7131         estimate D2E/DX2                !
 ! D85   D(35,34,36,37)         -1.0246         estimate D2E/DX2                !
 --------------------------------------------------------------------------------
 Trust Radius=3.00D-01 FncErr=1.00D-07 GrdErr=1.00D-06
 Number of steps in this run=    196 maximum allowed number of steps=    222.
 GradGradGradGradGradGradGradGradGradGradGradGradGradGradGradGradGradGrad

                          Input orientation:                          
 ---------------------------------------------------------------------
 Center     Atomic      Atomic             Coordinates (Angstroms)
 Number     Number       Type             X           Y           Z
 ---------------------------------------------------------------------
      1         79           0       -0.401762   -0.105235   -0.453934
      2         16           0        1.821984   -0.026419   -1.150024
      3         15           0       -2.617884   -0.225447    0.114218
      4          6           0       -3.680885    0.742790   -1.017206
      5          6           0       -5.165962    0.771608   -0.668368
      6          6           0       -3.293657   -1.926110    0.074859
      7          6           0       -2.502171   -2.927122    0.906613
      8          6           0       -2.963607    0.401600    1.803436
      9          6           0       -2.562623    1.860396    2.011792
     10          1           0       -3.260293    1.751894   -1.042599
     11          1           0       -3.516174    0.322082   -2.018269
     12          1           0       -5.702804    1.371312   -1.407570
     13          1           0       -5.343799    1.220789    0.312318
     14          1           0       -5.607822   -0.228537   -0.670796
     15          1           0       -4.334985   -1.879388    0.404242
     16          1           0       -3.296519   -2.235180   -0.977839
     17          1           0       -2.947356   -3.920005    0.798104
     18          1           0       -2.510859   -2.672942    1.968265
     19          1           0       -1.456668   -2.983909    0.580698
     20          1           0       -2.408947   -0.245432    2.485671
     21          1           0       -4.031770    0.247389    2.006139
     22          1           0       -1.495644    2.012934    1.806385
     23          1           0       -2.751608    2.163566    3.047935
     24          1           0       -3.135648    2.525614    1.354851
     25          6           0        2.769334    0.597950    0.293915
     26          1           0        2.278250    0.268936    1.212440
     27          6           0        4.187160    0.055816    0.223455
     28          1           0        4.632964    0.227552   -0.757067
     29          6           0        2.761140    2.101904    0.237124
     30          8           0        3.596678    2.778259   -0.319313
     31          8           0        1.707442    2.627897    0.870583
     32          1           0        1.739514    3.583791    0.753017
     33          1           0        4.837145    0.568351    0.954072
     34          6           0        4.232816   -1.402942    0.575394
     35          8           0        3.512213   -1.956817    1.369230
     36          8           0        5.215213   -2.033886   -0.064442
     37          1           0        5.227128   -2.959784    0.243381
 ---------------------------------------------------------------------
                    Distance matrix (angstroms):
                    1          2          3          4          5
     1  Au   0.000000
     2  S    2.331480   0.000000
     3  P    2.290948   4.620644   0.000000
     4  C    3.433521   5.557957   1.829638   0.000000
     5  C    4.848962   7.049839   2.845920   1.525769   0.000000
     6  C    3.458072   5.592758   1.830430   2.909567   3.366838
     7  C    3.771717   5.598406   2.817859   4.307981   4.822546
     8  C    3.451905   5.639859   1.834712   2.930345   3.331229
     9  C    3.822673   5.725551   2.820387   3.416779   3.891798
    10  H    3.459285   5.385488   2.379242   1.093542   2.175450
    11  H    3.511311   5.419523   2.377859   1.098295   2.178556
    12  H    5.584860   7.657834   3.792388   2.153040   1.092824
    13  H    5.173897   7.419058   3.092160   2.182063   1.093222
    14  H    5.212034   7.447988   3.091276   2.185535   1.093406
    15  H    4.399355   6.614946   2.401681   3.053552   2.978052
    16  H    3.631909   5.577396   2.385825   3.002931   3.554063
    17  H    4.753958   6.457695   3.771738   5.057180   5.392957
    18  H    4.111989   5.958300   3.072324   4.685000   5.085895
    19  H    3.235746   4.742542   3.029049   4.624794   5.424291
    20  H    3.562264   5.582743   2.380723   3.855458   4.310854
    21  H    4.399234   6.656033   2.408737   3.083692   2.951980
    22  H    3.285157   4.889373   3.022119   3.789619   4.597448
    23  H    4.788770   6.583057   3.785758   4.405398   4.645165
    24  H    4.203237   6.112723   3.061958   3.017018   3.360376
    25  C    3.333106   1.836374   5.452742   6.583718   7.995315
    26  H    3.177935   2.424180   5.042086   6.380215   7.694570
    27  C    4.641444   2.736287   6.811730   7.994830   9.422770
    28  H    5.054810   2.849653   7.317045   8.333860   9.814419
    29  C    3.918287   2.708496   5.862215   6.702255   8.088792
    30  O    4.931550   3.421380   6.915994   7.589013   8.996241
    31  O    3.697715   3.337868   5.236612   6.012607   7.284083
    32  H    4.432912   4.081909   5.822824   6.370691   7.590409
    33  H    5.466475   3.724536   7.544066   8.744896  10.135866
    34  C    4.921674   3.268638   6.966439   8.352676   9.726903
    35  O    4.698030   3.595824   6.492364   8.045099   9.322383
    36  O    5.951622   4.089305   8.041130   9.367937  10.770530
    37  H    6.349732   4.705445   8.308881   9.728866  11.080203
                    6          7          8          9         10
     6  C    0.000000
     7  C    1.523250   0.000000
     8  C    2.918072   3.478161   0.000000
     9  C    4.315524   4.913797   1.527182   0.000000
    10  H    3.844156   5.125170   3.164053   3.134935   0.000000
    11  H    3.079783   4.487813   3.862264   4.417812   1.749791
    12  H    4.344488   5.837468   4.330601   4.668188   2.498781
    13  H    3.763302   5.062924   2.925717   3.321483   2.541431
    14  H    2.965319   4.406319   3.675700   4.564335   3.093742
    15  H    1.093179   2.170099   3.006880   4.439760   4.053951
    16  H    1.097135   2.158919   3.846938   5.123499   3.987764
    17  H    2.149099   1.093518   4.437029   5.918961   5.971311
    18  H    2.180715   1.091690   3.112066   4.533842   5.404269
    19  H    2.179298   1.096596   3.902259   5.170924   5.321277
    20  H    3.069105   3.113451   1.091670   2.163952   4.142800
    21  H    2.999792   3.691362   1.098108   2.181792   3.486189
    22  H    4.663379   5.121215   2.179753   1.097226   3.361374
    23  H    5.085120   5.528344   2.167544   1.096002   4.142548
    24  H    4.634781   5.507680   2.177674   1.096560   2.522290
    25  C    6.571052   6.371051   5.931595   5.742355   6.282854
    26  H    6.095774   5.758536   5.276736   5.158077   6.161154
    27  C    7.740332   7.356070   7.331397   7.212089   7.742359
    28  H    8.256009   7.976838   8.018376   7.880941   8.044169
    29  C    7.274049   7.310387   6.173904   5.616959   6.165862
    30  O    8.352435   8.440985   7.293278   6.649324   6.970984
    31  O    6.810517   6.969962   5.257881   4.486075   5.395001
    32  H    7.493445   7.772224   5.774865   4.802394   5.619444
    33  H    8.550163   8.129338   7.848628   7.585824   8.423537
    34  C    7.561219   6.913240   7.520170   7.674021   8.289606
    35  O    6.927929   6.109691   6.905571   7.203307   8.089394
    36  O    8.510693   7.829357   8.735769   8.942646   9.333977
    37  H    8.584909   7.757771   8.990040   9.329611   9.792342
                   11         12         13         14         15
    11  H    0.000000
    12  H    2.501037   0.000000
    13  H    3.095080   1.763393   0.000000
    14  H    2.548305   1.763909   1.771092   0.000000
    15  H    3.374238   3.964926   3.261480   2.345449   0.000000
    16  H    2.769536   4.356795   4.218955   3.076201   1.764978
    17  H    5.123555   6.360466   5.692687   4.781494   2.498952
    18  H    5.086578   6.159608   5.092038   4.746677   2.530480
    19  H    4.682496   6.399284   5.732478   5.137158   3.088011
    20  H    4.672633   5.349830   3.935305   4.494037   3.272886
    21  H    4.057989   3.963454   2.353286   3.142678   2.679775
    22  H    4.644298   5.333046   4.203335   5.298172   5.017772
    23  H    5.444451   5.402661   3.884827   5.263941   5.083471
    24  H    4.047010   3.943815   2.768641   4.219033   4.663272
    25  C    6.702978   8.675844   8.137026   8.472927   7.524674
    26  H    6.634429   8.472125   7.733814   8.123065   7.000240
    27  C    8.027302  10.109508   9.602304   9.839828   8.740976
    28  H    8.246697  10.419186  10.082951  10.251300   9.285039
    29  C    6.903567   8.653157   8.153040   8.734689   8.138403
    30  O    7.714397   9.468060   9.097076   9.689540   9.226510
    31  O    6.399095   7.853708   7.211908   8.003009   7.552749
    32  H    6.777981   8.059237   7.480061   8.399073   8.177255
    33  H    8.869803  10.831095  10.221993  10.600593   9.509033
    34  C    8.351625  10.504531   9.933012   9.988512   8.582745
    35  O    8.128146  10.183496   9.468009   9.503878   7.906688
    36  O    9.252305  11.515314  11.055659  10.989315   9.562940
    37  H    9.608904  11.872129  11.367781  11.211225   9.624299
                   16         17         18         19         20
    16  H    0.000000
    17  H    2.472756   0.000000
    18  H    3.080329   1.764928   0.000000
    19  H    2.524814   1.773610   1.770130   0.000000
    20  H    4.091795   4.079247   2.484130   3.469152   0.000000
    21  H    3.950679   4.472413   3.292862   4.370849   1.762492
    22  H    5.389019   6.190627   4.797322   5.145121   2.528986
    23  H    5.987717   6.489214   4.961397   5.853258   2.497364
    24  H    5.304006   6.472359   5.271776   5.811465   3.079861
    25  C    6.814584   7.303880   6.432932   5.547166   5.685920
    26  H    6.491993   6.710131   5.671109   4.992966   4.884210
    27  C    7.918158   8.187716   7.440023   6.420307   6.979756
    28  H    8.306051   8.779638   8.177683   7.013324   7.767083
    29  C    7.548620   8.316551   7.320518   6.616150   6.107025
    30  O    8.548941   9.430787   8.500036   7.716794   7.285477
    31  O    7.218435   8.034141   6.862788   6.448875   5.273442
    32  H    7.887833   8.847358   7.660888   7.306159   5.905486
    33  H    8.817514   8.987109   8.094920   7.236715   7.450764
    34  C    7.732790   7.611838   7.002153   5.905058   7.007282
    35  O    7.207291   6.775421   6.095004   5.134830   6.263818
    36  O    8.562966   8.421933   8.014517   6.769989   8.235864
    37  H    8.641122   8.249359   7.933092   6.692346   8.408639
                   21         22         23         24         25
    21  H    0.000000
    22  H    3.096609   0.000000
    23  H    2.529009   1.772451   0.000000
    24  H    2.533282   1.776608   1.773443   0.000000
    25  C    7.022081   4.741285   6.365264   6.301610   0.000000
    26  H    6.359778   4.199592   5.679625   5.867126   1.092292
    27  C    8.412222   6.215323   7.782467   7.810472   1.519574
    28  H    9.094686   6.878860   8.529836   8.372133   2.171376
    29  C    7.260321   4.537698   6.188283   6.016723   1.505048
    30  O    8.366974   5.571001   7.212277   6.941964   2.411285
    31  O    6.316238   3.393179   4.983933   4.868316   2.362381
    32  H    6.783039   3.747456   5.239644   5.024853   3.191638
    33  H    8.936863   6.551143   8.032319   8.219302   2.170835
    34  C    8.548333   6.782242   8.222872   8.386618   2.494911
    35  O    7.885167   6.405362   7.683167   8.017883   2.869670
    36  O    9.746703   8.056820   9.527630   9.619788   3.610721
    37  H    9.955926   8.506854   9.888097  10.062851   4.324439
                   26         27         28         29         30
    26  H    0.000000
    27  C    2.160428   0.000000
    28  H    3.070073   1.090714   0.000000
    29  C    2.131712   2.494032   2.829370   0.000000
    30  O    3.221990   2.838126   2.787763   1.210455   0.000000
    31  O    2.450997   3.630892   4.119415   1.337243   2.237783
    32  H    3.389627   4.326432   4.681533   1.872393   2.290815
    33  H    2.589275   1.104071   1.756653   2.678730   2.836188
    34  C    2.649780   1.501306   2.143381   3.816307   4.322917
    35  O    2.549750   2.412270   3.247875   4.280069   5.027848
    36  O    3.944511   2.346621   2.435743   4.818524   5.083439
    37  H    4.478793   3.189949   3.393087   5.630437   5.991672
                   31         32         33         34         35
    31  O    0.000000
    32  H    0.963630   0.000000
    33  H    3.747498   4.327657   0.000000
    34  C    4.765744   5.578137   2.096332   0.000000
    35  O    4.952318   5.849831   2.881714   1.206740   0.000000
    36  O    5.908549   6.656352   2.819919   1.331384   2.227457
    37  H    6.633532   7.432466   3.620070   1.876871   2.283509
                   36         37
    36  O    0.000000
    37  H    0.975799   0.000000
 Stoichiometry    C10H20AuO4PS
 Framework group  C1[X(C10H20AuO4PS)]
 Deg. of freedom   105
 Full point group                 C1      NOp   1
 Largest Abelian subgroup         C1      NOp   1
 Largest concise Abelian subgroup C1      NOp   1
                         Standard orientation:                         
 ---------------------------------------------------------------------
 Center     Atomic      Atomic             Coordinates (Angstroms)
 Number     Number       Type             X           Y           Z
 ---------------------------------------------------------------------
      1         79           0       -0.401762   -0.105235   -0.453934
      2         16           0        1.821984   -0.026419   -1.150024
      3         15           0       -2.617884   -0.225447    0.114218
      4          6           0       -3.680885    0.742790   -1.017206
      5          6           0       -5.165962    0.771608   -0.668368
      6          6           0       -3.293657   -1.926110    0.074859
      7          6           0       -2.502171   -2.927122    0.906613
      8          6           0       -2.963607    0.401600    1.803436
      9          6           0       -2.562623    1.860396    2.011792
     10          1           0       -3.260293    1.751894   -1.042599
     11          1           0       -3.516174    0.322082   -2.018269
     12          1           0       -5.702804    1.371312   -1.407570
     13          1           0       -5.343799    1.220789    0.312318
     14          1           0       -5.607822   -0.228537   -0.670796
     15          1           0       -4.334985   -1.879388    0.404242
     16          1           0       -3.296519   -2.235180   -0.977839
     17          1           0       -2.947356   -3.920005    0.798104
     18          1           0       -2.510859   -2.672942    1.968265
     19          1           0       -1.456668   -2.983909    0.580698
     20          1           0       -2.408947   -0.245432    2.485671
     21          1           0       -4.031770    0.247389    2.006139
     22          1           0       -1.495644    2.012934    1.806385
     23          1           0       -2.751608    2.163566    3.047935
     24          1           0       -3.135648    2.525614    1.354851
     25          6           0        2.769334    0.597950    0.293915
     26          1           0        2.278250    0.268936    1.212440
     27          6           0        4.187160    0.055816    0.223455
     28          1           0        4.632964    0.227552   -0.757067
     29          6           0        2.761140    2.101904    0.237124
     30          8           0        3.596678    2.778259   -0.319313
     31          8           0        1.707442    2.627897    0.870583
     32          1           0        1.739514    3.583791    0.753017
     33          1           0        4.837145    0.568351    0.954072
     34          6           0        4.232816   -1.402942    0.575394
     35          8           0        3.512213   -1.956817    1.369230
     36          8           0        5.215213   -2.033886   -0.064442
     37          1           0        5.227128   -2.959784    0.243381
 ---------------------------------------------------------------------
 Rotational constants (GHZ):      0.4935116      0.1534903      0.1351749
 General basis read from cards:  (5D, 7F)
 ======================================================================================================
                                       Pseudopotential Parameters
 ======================================================================================================
  Center     Atomic      Valence      Angular      Power
  Number     Number     Electrons     Momentum     of R      Exponent        Coefficient   SO-Coeffient
 ======================================================================================================
    1         79           19
                                      G and up 
                                                     1      622.6287956      -60.00000000    0.00000000
                                                     2      136.2843607     -555.52923120    0.00000000
                                                     2       33.1549781     -168.00197850    0.00000000
                                                     2        9.9894895      -63.03998750    0.00000000
                                                     2        3.0481312       -4.25166810    0.00000000
                                      S - G
                                                     0      194.7374304        3.00000000    0.00000000
                                                     1      351.5327447       38.60208800    0.00000000
                                                     2      122.3270402      864.83707270    0.00000000
                                                     2       32.0914617      374.99355200    0.00000000
                                                     2        5.2451812      289.79101000    0.00000000
                                                     2        4.4916223     -152.45327730    0.00000000
                                      P - G
                                                     0      420.6158801        2.00000000    0.00000000
                                                     1      109.4417815       73.88856250    0.00000000
                                                     2       34.1714280      326.67298720    0.00000000
                                                     2        5.9879750      126.58145910    0.00000000
                                      D - G
                                                     0      219.2666158        3.00000000    0.00000000
                                                     1      122.7297786       55.67931490    0.00000000
                                                     2       63.1063369      449.19873350    0.00000000
                                                     2       18.3684520      215.02690910    0.00000000
                                                     2        4.4972844       64.08409950    0.00000000
                                      F - G
                                                     0      108.5506037        4.00000000    0.00000000
                                                     1       56.4795527       51.80653350    0.00000000
                                                     2       29.2069159      231.21831130    0.00000000
                                                     2        9.5440543      119.00473860    0.00000000
                                                     2        2.8965118       15.34241880    0.00000000
    2         16
                                   No pseudopotential on this center.
    3         15
                                   No pseudopotential on this center.
    4          6
                                   No pseudopotential on this center.
    5          6
                                   No pseudopotential on this center.
    6          6
                                   No pseudopotential on this center.
    7          6
                                   No pseudopotential on this center.
    8          6
                                   No pseudopotential on this center.
    9          6
                                   No pseudopotential on this center.
   10          1
                                   No pseudopotential on this center.
   11          1
                                   No pseudopotential on this center.
   12          1
                                   No pseudopotential on this center.
   13          1
                                   No pseudopotential on this center.
   14          1
                                   No pseudopotential on this center.
   15          1
                                   No pseudopotential on this center.
   16          1
                                   No pseudopotential on this center.
   17          1
                                   No pseudopotential on this center.
   18          1
                                   No pseudopotential on this center.
   19          1
                                   No pseudopotential on this center.
   20          1
                                   No pseudopotential on this center.
   21          1
                                   No pseudopotential on this center.
   22          1
                                   No pseudopotential on this center.
   23          1
                                   No pseudopotential on this center.
   24          1
                                   No pseudopotential on this center.
   25          6
                                   No pseudopotential on this center.
   26          1
                                   No pseudopotential on this center.
   27          6
                                   No pseudopotential on this center.
   28          1
                                   No pseudopotential on this center.
   29          6
                                   No pseudopotential on this center.
   30          8
                                   No pseudopotential on this center.
   31          8
                                   No pseudopotential on this center.
   32          1
                                   No pseudopotential on this center.
   33          1
                                   No pseudopotential on this center.
   34          6
                                   No pseudopotential on this center.
   35          8
                                   No pseudopotential on this center.
   36          8
                                   No pseudopotential on this center.
   37          1
                                   No pseudopotential on this center.
 ======================================================================================================
 There are   336 symmetry adapted cartesian basis functions of A   symmetry.
 There are   314 symmetry adapted basis functions of A   symmetry.
   314 basis functions,   624 primitive gaussians,   336 cartesian basis functions
    81 alpha electrons       81 beta electrons
       nuclear repulsion energy      1732.3907345651 Hartrees.
 NAtoms=   37 NActive=   37 NUniq=   37 SFac= 1.00D+00 NAtFMM=   60 NAOKFM=F Big=F
 Integral buffers will be    131072 words long.
 Raffenetti 2 integral format.
 Two-electron integral symmetry is turned on.
 One-electron integrals computed using PRISM.
   1 Symmetry operations used in ECPInt.
 ECPInt:  NShTT=    7260 NPrTT=   40281 LenC2=    6166 LenP2D=   20236.
 LDataN:  DoStor=T MaxTD1= 7 Len=  274
 NBasis=   314 RedAO= T EigKep=  2.40D-03  NBF=   314
 NBsUse=   314 1.00D-06 EigRej= -1.00D+00 NBFU=   314
 Defaulting to unpruned grid for atomic number  79.
 ExpMin= 2.79D-02 ExpMax= 2.19D+04 ExpMxC= 3.30D+03 IAcc=3 IRadAn=         5 AccDes= 0.00D+00
 Harris functional with IExCor=  402 and IRadAn=       5 diagonalized for initial guess.
 HarFok:  IExCor=  402 AccDes= 0.00D+00 IRadAn=         5 IDoV= 1 UseB2=F ITyADJ=14
 ICtDFT=  3500011 ScaDFX=  1.000000  1.000000  1.000000  1.000000
 Defaulting to unpruned grid for atomic number  79.
 Defaulting to unpruned grid for atomic number  79.
 Defaulting to unpruned grid for atomic number  79.
 Defaulting to unpruned grid for atomic number  79.
 Defaulting to unpruned grid for atomic number  79.
 Defaulting to unpruned grid for atomic number  79.
 Defaulting to unpruned grid for atomic number  79.
 Defaulting to unpruned grid for atomic number  79.
 FoFCou: FMM=F IPFlag=           0 FMFlag=      100000 FMFlg1=           0
         NFxFlg=           0 DoJE=T BraDBF=F KetDBF=T FulRan=T
         wScrn=  0.000000 ICntrl=     500 IOpCl=  0 I1Cent=   200000004 NGrid=           0
         NMat0=    1 NMatS0=      1 NMatT0=    0 NMatD0=    1 NMtDS0=    0 NMtDT0=    0
 Petite list used in FoFCou.
 Keep R1 ints in memory in canonical form, NReq=1242421898.
 Requested convergence on RMS density matrix=1.00D-08 within 128 cycles.
 Requested convergence on MAX density matrix=1.00D-06.
 Requested convergence on             energy=1.00D-06.
 No special actions if energy rises.
 Defaulting to unpruned grid for atomic number  79.
 Defaulting to unpruned grid for atomic number  79.
 Defaulting to unpruned grid for atomic number  79.
 Defaulting to unpruned grid for atomic number  79.
 Defaulting to unpruned grid for atomic number  79.
 Defaulting to unpruned grid for atomic number  79.
 Defaulting to unpruned grid for atomic number  79.
 Defaulting to unpruned grid for atomic number  79.
 SCF Done:  E(RB3LYP) =  -1569.11832326     A.U. after   14 cycles
            NFock= 14  Conv=0.75D-08     -V/T= 2.0667

 **********************************************************************

            Population analysis using the SCF density.

 **********************************************************************

 Orbital symmetries:
       Occupied  (A) (A) (A) (A) (A) (A) (A) (A) (A) (A) (A) (A)
                 (A) (A) (A) (A) (A) (A) (A) (A) (A) (A) (A) (A)
                 (A) (A) (A) (A) (A) (A) (A) (A) (A) (A) (A) (A)
                 (A) (A) (A) (A) (A) (A) (A) (A) (A) (A) (A) (A)
                 (A) (A) (A) (A) (A) (A) (A) (A) (A) (A) (A) (A)
                 (A) (A) (A) (A) (A) (A) (A) (A) (A) (A) (A) (A)
                 (A) (A) (A) (A) (A) (A) (A) (A) (A)
       Virtual   (A) (A) (A) (A) (A) (A) (A) (A) (A) (A) (A) (A)
                 (A) (A) (A) (A) (A) (A) (A) (A) (A) (A) (A) (A)
                 (A) (A) (A) (A) (A) (A) (A) (A) (A) (A) (A) (A)
                 (A) (A) (A) (A) (A) (A) (A) (A) (A) (A) (A) (A)
                 (A) (A) (A) (A) (A) (A) (A) (A) (A) (A) (A) (A)
                 (A) (A) (A) (A) (A) (A) (A) (A) (A) (A) (A) (A)
                 (A) (A) (A) (A) (A) (A) (A) (A) (A) (A) (A) (A)
                 (A) (A) (A) (A) (A) (A) (A) (A) (A) (A) (A) (A)
                 (A) (A) (A) (A) (A) (A) (A) (A) (A) (A) (A) (A)
                 (A) (A) (A) (A) (A) (A) (A) (A) (A) (A) (A) (A)
                 (A) (A) (A) (A) (A) (A) (A) (A) (A) (A) (A) (A)
                 (A) (A) (A) (A) (A) (A) (A) (A) (A) (A) (A) (A)
                 (A) (A) (A) (A) (A) (A) (A) (A) (A) (A) (A) (A)
                 (A) (A) (A) (A) (A) (A) (A) (A) (A) (A) (A) (A)
                 (A) (A) (A) (A) (A) (A) (A) (A) (A) (A) (A) (A)
                 (A) (A) (A) (A) (A) (A) (A) (A) (A) (A) (A) (A)
                 (A) (A) (A) (A) (A) (A) (A) (A) (A) (A) (A) (A)
                 (A) (A) (A) (A) (A) (A) (A) (A) (A) (A) (A) (A)
                 (A) (A) (A) (A) (A) (A) (A) (A) (A) (A) (A) (A)
                 (A) (A) (A) (A) (A)
 The electronic state is 1-A.
 Alpha  occ. eigenvalues --  -88.80668 -77.11652 -19.17772 -19.17635 -19.11535
 Alpha  occ. eigenvalues --  -19.11419 -10.29883 -10.29750 -10.21286 -10.21253
 Alpha  occ. eigenvalues --  -10.21159 -10.20179 -10.20056 -10.19570 -10.19151
 Alpha  occ. eigenvalues --  -10.17891  -7.88285  -6.59768  -5.84724  -5.84213
 Alpha  occ. eigenvalues --   -5.83805  -4.75910  -4.75896  -4.75669  -4.15954
 Alpha  occ. eigenvalues --   -2.30602  -2.28537  -2.28351  -1.09696  -1.09630
 Alpha  occ. eigenvalues --   -0.99931  -0.99825  -0.83042  -0.80332  -0.78604
 Alpha  occ. eigenvalues --   -0.78371  -0.71126  -0.69410  -0.65326  -0.64345
 Alpha  occ. eigenvalues --   -0.64220  -0.61031  -0.56447  -0.54752  -0.50038
 Alpha  occ. eigenvalues --   -0.49762  -0.48234  -0.47780  -0.46800  -0.46621
 Alpha  occ. eigenvalues --   -0.46238  -0.45777  -0.44689  -0.44546  -0.43463
 Alpha  occ. eigenvalues --   -0.42780  -0.41097  -0.40444  -0.40087  -0.39733
 Alpha  occ. eigenvalues --   -0.38971  -0.38552  -0.38252  -0.37257  -0.37052
 Alpha  occ. eigenvalues --   -0.36874  -0.36189  -0.34844  -0.34831  -0.32770
 Alpha  occ. eigenvalues --   -0.31729  -0.30525  -0.30093  -0.29434  -0.29396
 Alpha  occ. eigenvalues --   -0.28997  -0.26693  -0.26148  -0.25522  -0.23161
 Alpha  occ. eigenvalues --   -0.19007
 Alpha virt. eigenvalues --   -0.02061  -0.00757   0.02054   0.02687   0.03225
 Alpha virt. eigenvalues --    0.03758   0.05230   0.05744   0.07774   0.08594
 Alpha virt. eigenvalues --    0.09178   0.09461   0.09884   0.10503   0.10946
 Alpha virt. eigenvalues --    0.11732   0.12731   0.13090   0.14123   0.14537
 Alpha virt. eigenvalues --    0.15229   0.15399   0.15878   0.16293   0.16779
 Alpha virt. eigenvalues --    0.17588   0.18381   0.18937   0.19170   0.20242
 Alpha virt. eigenvalues --    0.20276   0.20736   0.21566   0.23375   0.23576
 Alpha virt. eigenvalues --    0.24069   0.25878   0.26937   0.28022   0.31209
 Alpha virt. eigenvalues --    0.32478   0.32764   0.36312   0.38018   0.38197
 Alpha virt. eigenvalues --    0.39737   0.40794   0.41266   0.41974   0.42774
 Alpha virt. eigenvalues --    0.44692   0.45144   0.46965   0.48653   0.49442
 Alpha virt. eigenvalues --    0.51574   0.52738   0.54014   0.55851   0.57217
 Alpha virt. eigenvalues --    0.57365   0.58006   0.58617   0.59065   0.59178
 Alpha virt. eigenvalues --    0.60877   0.61216   0.62661   0.63575   0.64276
 Alpha virt. eigenvalues --    0.64903   0.66183   0.67565   0.68904   0.69245
 Alpha virt. eigenvalues --    0.70173   0.72102   0.72787   0.74464   0.75300
 Alpha virt. eigenvalues --    0.77813   0.79305   0.79965   0.80434   0.81830
 Alpha virt. eigenvalues --    0.82350   0.84083   0.84776   0.85007   0.85367
 Alpha virt. eigenvalues --    0.85599   0.86075   0.86749   0.87271   0.87598
 Alpha virt. eigenvalues --    0.88161   0.88434   0.89748   0.89983   0.90310
 Alpha virt. eigenvalues --    0.91299   0.91558   0.92030   0.93263   0.93590
 Alpha virt. eigenvalues --    0.94589   0.95602   0.96211   0.96784   0.97235
 Alpha virt. eigenvalues --    0.98389   0.98709   0.99363   0.99688   1.00838
 Alpha virt. eigenvalues --    1.01542   1.01729   1.02689   1.02981   1.03468
 Alpha virt. eigenvalues --    1.04756   1.05336   1.06755   1.08289   1.10638
 Alpha virt. eigenvalues --    1.11258   1.12712   1.16343   1.17917   1.21907
 Alpha virt. eigenvalues --    1.22526   1.25748   1.28211   1.36062   1.36859
 Alpha virt. eigenvalues --    1.38823   1.43111   1.44010   1.47851   1.50167
 Alpha virt. eigenvalues --    1.50791   1.53228   1.54129   1.56134   1.56503
 Alpha virt. eigenvalues --    1.61791   1.65401   1.65948   1.68117   1.68949
 Alpha virt. eigenvalues --    1.71331   1.72661   1.73440   1.74690   1.76222
 Alpha virt. eigenvalues --    1.79431   1.82026   1.83109   1.83516   1.83634
 Alpha virt. eigenvalues --    1.84774   1.87518   1.88741   1.89671   1.90870
 Alpha virt. eigenvalues --    1.91740   1.92222   1.94020   1.94471   1.95306
 Alpha virt. eigenvalues --    1.95972   1.96107   1.96795   1.96968   1.97610
 Alpha virt. eigenvalues --    1.98761   1.99410   1.99502   2.00396   2.00941
 Alpha virt. eigenvalues --    2.01443   2.01535   2.02308   2.02438   2.03669
 Alpha virt. eigenvalues --    2.04679   2.05825   2.08438   2.10338   2.11056
 Alpha virt. eigenvalues --    2.13314   2.15493   2.16705   2.17590   2.24409
 Alpha virt. eigenvalues --    2.25550   2.25945   2.27409   2.28081   2.28973
 Alpha virt. eigenvalues --    2.30411   2.31117   2.31396   2.32405   2.32757
 Alpha virt. eigenvalues --    2.33044   2.33527   2.35949   2.36996   2.40547
 Alpha virt. eigenvalues --    2.45395   2.48788   2.52105   2.54153   2.58160
 Alpha virt. eigenvalues --    2.59125   2.59441   2.62962   2.65999   2.68524
 Alpha virt. eigenvalues --    2.70900   2.76847   2.80194   2.88852   2.91367
 Alpha virt. eigenvalues --    2.99627   3.04058   3.11273   3.15273  15.60178
 Alpha virt. eigenvalues --   15.60786  15.69942  43.16344
          Condensed to atoms (all electrons):
               1          2          3          4          5          6
     1  Au  18.520352   0.324399   0.329449  -0.028763   0.001902  -0.029381
     2  S    0.324399  15.725517  -0.001908  -0.000008   0.000000   0.000019
     3  P    0.329449  -0.001908  13.601885   0.307353  -0.026308   0.314926
     4  C   -0.028763  -0.000008   0.307353   5.246774   0.348355  -0.032069
     5  C    0.001902   0.000000  -0.026308   0.348355   5.064236  -0.004751
     6  C   -0.029381   0.000019   0.314926  -0.032069  -0.004751   5.235111
     7  C    0.000553  -0.000075  -0.038886   0.001803   0.000096   0.366008
     8  C   -0.027975   0.000025   0.323034  -0.028708  -0.004395  -0.030741
     9  C   -0.000446  -0.000024  -0.036365  -0.001619  -0.001003   0.001751
    10  H   -0.000492  -0.000031  -0.031252   0.374296  -0.033419   0.002046
    11  H   -0.000303  -0.000027  -0.030844   0.373352  -0.032325  -0.003110
    12  H   -0.000002   0.000000   0.004493  -0.029673   0.377638   0.000043
    13  H    0.000046   0.000000  -0.008224  -0.036375   0.382632  -0.000274
    14  H    0.000571   0.000000  -0.007330  -0.036077   0.382187   0.002069
    15  H    0.003370  -0.000002  -0.031308  -0.003084   0.001388   0.357569
    16  H   -0.001589  -0.000021  -0.028555  -0.001432  -0.000157   0.369659
    17  H   -0.000527   0.000000   0.005165  -0.000063   0.000000  -0.029774
    18  H   -0.000199  -0.000007  -0.005964   0.000019  -0.000005  -0.038592
    19  H    0.011205  -0.000104  -0.009983   0.000018  -0.000002  -0.031775
    20  H   -0.004031  -0.000020  -0.033471   0.002317   0.000035  -0.001544
    21  H    0.003608  -0.000002  -0.032023  -0.005201   0.002256  -0.002843
    22  H    0.010761  -0.000144  -0.009908  -0.000209   0.000023   0.000015
    23  H   -0.000526   0.000000   0.004934   0.000001  -0.000001  -0.000058
    24  H   -0.000612  -0.000003  -0.007088   0.002145   0.000352   0.000005
    25  C   -0.019724   0.239458   0.000132   0.000000   0.000000   0.000000
    26  H   -0.002815  -0.042490   0.000074   0.000000   0.000000   0.000000
    27  C    0.000577  -0.057162   0.000001   0.000000   0.000000   0.000000
    28  H    0.000275  -0.000464   0.000000   0.000000   0.000000   0.000000
    29  C   -0.006799  -0.037995  -0.000079   0.000000   0.000000   0.000000
    30  O    0.004065  -0.000801  -0.000001   0.000000   0.000000   0.000000
    31  O    0.018268  -0.004663  -0.000260   0.000000   0.000000   0.000000
    32  H   -0.001135  -0.000969  -0.000001   0.000000   0.000000   0.000000
    33  H    0.000939   0.005221   0.000000   0.000000   0.000000   0.000000
    34  C   -0.002027   0.002795  -0.000002   0.000000   0.000000   0.000000
    35  O    0.009097  -0.000584  -0.000006   0.000000   0.000000   0.000000
    36  O    0.000805  -0.000893   0.000000   0.000000   0.000000   0.000000
    37  H    0.000189   0.000010   0.000000   0.000000   0.000000   0.000000
               7          8          9         10         11         12
     1  Au   0.000553  -0.027975  -0.000446  -0.000492  -0.000303  -0.000002
     2  S   -0.000075   0.000025  -0.000024  -0.000031  -0.000027   0.000000
     3  P   -0.038886   0.323034  -0.036365  -0.031252  -0.030844   0.004493
     4  C    0.001803  -0.028708  -0.001619   0.374296   0.373352  -0.029673
     5  C    0.000096  -0.004395  -0.001003  -0.033419  -0.032325   0.377638
     6  C    0.366008  -0.030741   0.001751   0.002046  -0.003110   0.000043
     7  C    5.064291  -0.001984   0.000074  -0.000026   0.000013   0.000000
     8  C   -0.001984   5.219944   0.362805  -0.002450   0.002184   0.000073
     9  C    0.000074   0.362805   5.071617   0.001430   0.000047  -0.000005
    10  H   -0.000026  -0.002450   0.001430   0.518579  -0.025444  -0.003992
    11  H    0.000013   0.002184   0.000047  -0.025444   0.522440  -0.004069
    12  H    0.000000   0.000073  -0.000005  -0.003992  -0.004069   0.547567
    13  H   -0.000008   0.001683   0.000512  -0.003426   0.004351  -0.029572
    14  H   -0.000022  -0.000345   0.000052   0.004294  -0.003008  -0.029578
    15  H   -0.032630  -0.004987  -0.000001  -0.000026  -0.000177  -0.000067
    16  H   -0.029232   0.002097  -0.000028   0.000030   0.001727  -0.000017
    17  H    0.373174  -0.000020   0.000000   0.000001  -0.000003   0.000000
    18  H    0.382065   0.001733  -0.000016   0.000001   0.000002   0.000000
    19  H    0.384411  -0.000088  -0.000005  -0.000001  -0.000003   0.000000
    20  H    0.001242   0.373578  -0.027476   0.000009  -0.000026   0.000001
    21  H   -0.000187   0.356782  -0.032483  -0.000154  -0.000020  -0.000090
    22  H   -0.000005  -0.031624   0.382029  -0.000091  -0.000005   0.000000
    23  H    0.000000  -0.028098   0.373814  -0.000043   0.000001   0.000000
    24  H   -0.000001  -0.039303   0.380827   0.001751   0.000004  -0.000029
    25  C    0.000000  -0.000002  -0.000001   0.000000   0.000000   0.000000
    26  H    0.000000  -0.000002  -0.000002   0.000000   0.000000   0.000000
    27  C    0.000000   0.000000   0.000000   0.000000   0.000000   0.000000
    28  H    0.000000   0.000000   0.000000   0.000000   0.000000   0.000000
    29  C    0.000000   0.000001  -0.000004   0.000000   0.000000   0.000000
    30  O    0.000000   0.000000   0.000000   0.000000   0.000000   0.000000
    31  O    0.000000   0.000005  -0.000209  -0.000001   0.000000   0.000000
    32  H    0.000000   0.000000   0.000010   0.000000   0.000000   0.000000
    33  H    0.000000   0.000000   0.000000   0.000000   0.000000   0.000000
    34  C    0.000000   0.000000   0.000000   0.000000   0.000000   0.000000
    35  O    0.000000   0.000000   0.000000   0.000000   0.000000   0.000000
    36  O    0.000000   0.000000   0.000000   0.000000   0.000000   0.000000
    37  H    0.000000   0.000000   0.000000   0.000000   0.000000   0.000000
              13         14         15         16         17         18
     1  Au   0.000046   0.000571   0.003370  -0.001589  -0.000527  -0.000199
     2  S    0.000000   0.000000  -0.000002  -0.000021   0.000000  -0.000007
     3  P   -0.008224  -0.007330  -0.031308  -0.028555   0.005165  -0.005964
     4  C   -0.036375  -0.036077  -0.003084  -0.001432  -0.000063   0.000019
     5  C    0.382632   0.382187   0.001388  -0.000157   0.000000  -0.000005
     6  C   -0.000274   0.002069   0.357569   0.369659  -0.029774  -0.038592
     7  C   -0.000008  -0.000022  -0.032630  -0.029232   0.373174   0.382065
     8  C    0.001683  -0.000345  -0.004987   0.002097  -0.000020   0.001733
     9  C    0.000512   0.000052  -0.000001  -0.000028   0.000000  -0.000016
    10  H   -0.003426   0.004294  -0.000026   0.000030   0.000001   0.000001
    11  H    0.004351  -0.003008  -0.000177   0.001727  -0.000003   0.000002
    12  H   -0.029572  -0.029578  -0.000067  -0.000017   0.000000   0.000000
    13  H    0.555096  -0.030884   0.000083   0.000026   0.000000   0.000000
    14  H   -0.030884   0.554309   0.003835   0.000339   0.000004   0.000004
    15  H    0.000083   0.003835   0.566300  -0.029585  -0.004025  -0.003284
    16  H    0.000026   0.000339  -0.029585   0.532712  -0.005494   0.004626
    17  H    0.000000   0.000004  -0.004025  -0.005494   0.556937  -0.030172
    18  H    0.000000   0.000004  -0.003284   0.004626  -0.030172   0.556237
    19  H    0.000000   0.000000   0.003961  -0.003459  -0.026489  -0.028278
    20  H    0.000026  -0.000014  -0.000270   0.000032  -0.000057   0.002987
    21  H    0.002955   0.000046   0.003699  -0.000005  -0.000007   0.000232
    22  H   -0.000011  -0.000002   0.000000   0.000001   0.000000   0.000002
    23  H   -0.000013   0.000000  -0.000002   0.000001   0.000000   0.000003
    24  H    0.001557  -0.000007   0.000001   0.000000   0.000000   0.000001
    25  C    0.000000   0.000000   0.000000   0.000000   0.000000   0.000000
    26  H    0.000000   0.000000   0.000000   0.000000   0.000000   0.000000
    27  C    0.000000   0.000000   0.000000   0.000000   0.000000   0.000000
    28  H    0.000000   0.000000   0.000000   0.000000   0.000000   0.000000
    29  C    0.000000   0.000000   0.000000   0.000000   0.000000   0.000000
    30  O    0.000000   0.000000   0.000000   0.000000   0.000000   0.000000
    31  O    0.000000   0.000000   0.000000   0.000000   0.000000   0.000000
    32  H    0.000000   0.000000   0.000000   0.000000   0.000000   0.000000
    33  H    0.000000   0.000000   0.000000   0.000000   0.000000   0.000000
    34  C    0.000000   0.000000   0.000000   0.000000   0.000000   0.000000
    35  O    0.000000   0.000000   0.000000   0.000000   0.000000   0.000000
    36  O    0.000000   0.000000   0.000000   0.000000   0.000000   0.000000
    37  H    0.000000   0.000000   0.000000   0.000000   0.000000   0.000000
              19         20         21         22         23         24
     1  Au   0.011205  -0.004031   0.003608   0.010761  -0.000526  -0.000612
     2  S   -0.000104  -0.000020  -0.000002  -0.000144   0.000000  -0.000003
     3  P   -0.009983  -0.033471  -0.032023  -0.009908   0.004934  -0.007088
     4  C    0.000018   0.002317  -0.005201  -0.000209   0.000001   0.002145
     5  C   -0.000002   0.000035   0.002256   0.000023  -0.000001   0.000352
     6  C   -0.031775  -0.001544  -0.002843   0.000015  -0.000058   0.000005
     7  C    0.384411   0.001242  -0.000187  -0.000005   0.000000  -0.000001
     8  C   -0.000088   0.373578   0.356782  -0.031624  -0.028098  -0.039303
     9  C   -0.000005  -0.027476  -0.032483   0.382029   0.373814   0.380827
    10  H   -0.000001   0.000009  -0.000154  -0.000091  -0.000043   0.001751
    11  H   -0.000003  -0.000026  -0.000020  -0.000005   0.000001   0.000004
    12  H    0.000000   0.000001  -0.000090   0.000000   0.000000  -0.000029
    13  H    0.000000   0.000026   0.002955  -0.000011  -0.000013   0.001557
    14  H    0.000000  -0.000014   0.000046  -0.000002   0.000000  -0.000007
    15  H    0.003961  -0.000270   0.003699   0.000000  -0.000002   0.000001
    16  H   -0.003459   0.000032  -0.000005   0.000001   0.000001   0.000000
    17  H   -0.026489  -0.000057  -0.000007   0.000000   0.000000   0.000000
    18  H   -0.028278   0.002987   0.000232   0.000002   0.000003   0.000001
    19  H    0.486623  -0.000010   0.000005   0.000000   0.000000   0.000000
    20  H   -0.000010   0.525245  -0.029629  -0.003298  -0.004685   0.004588
    21  H    0.000005  -0.029629   0.568739   0.004021  -0.004068  -0.003728
    22  H    0.000000  -0.003298   0.004021   0.490347  -0.027003  -0.028238
    23  H    0.000000  -0.004685  -0.004068  -0.027003   0.553369  -0.030021
    24  H    0.000000   0.004588  -0.003728  -0.028238  -0.030021   0.563345
    25  C   -0.000001   0.000000   0.000000  -0.000005   0.000000   0.000000
    26  H    0.000000   0.000001   0.000000  -0.000006   0.000000   0.000000
    27  C    0.000000   0.000000   0.000000   0.000000   0.000000   0.000000
    28  H    0.000000   0.000000   0.000000   0.000000   0.000000   0.000000
    29  C    0.000000   0.000000   0.000000   0.000042   0.000000   0.000000
    30  O    0.000000   0.000000   0.000000   0.000001   0.000000   0.000000
    31  O    0.000000  -0.000001   0.000000   0.001225   0.000000  -0.000002
    32  H    0.000000   0.000000   0.000000  -0.000010   0.000000   0.000000
    33  H    0.000000   0.000000   0.000000   0.000000   0.000000   0.000000
    34  C    0.000000   0.000000   0.000000   0.000000   0.000000   0.000000
    35  O   -0.000002   0.000000   0.000000   0.000000   0.000000   0.000000
    36  O    0.000000   0.000000   0.000000   0.000000   0.000000   0.000000
    37  H    0.000000   0.000000   0.000000   0.000000   0.000000   0.000000
              25         26         27         28         29         30
     1  Au  -0.019724  -0.002815   0.000577   0.000275  -0.006799   0.004065
     2  S    0.239458  -0.042490  -0.057162  -0.000464  -0.037995  -0.000801
     3  P    0.000132   0.000074   0.000001   0.000000  -0.000079  -0.000001
     4  C    0.000000   0.000000   0.000000   0.000000   0.000000   0.000000
     5  C    0.000000   0.000000   0.000000   0.000000   0.000000   0.000000
     6  C    0.000000   0.000000   0.000000   0.000000   0.000000   0.000000
     7  C    0.000000   0.000000   0.000000   0.000000   0.000000   0.000000
     8  C   -0.000002  -0.000002   0.000000   0.000000   0.000001   0.000000
     9  C   -0.000001  -0.000002   0.000000   0.000000  -0.000004   0.000000
    10  H    0.000000   0.000000   0.000000   0.000000   0.000000   0.000000
    11  H    0.000000   0.000000   0.000000   0.000000   0.000000   0.000000
    12  H    0.000000   0.000000   0.000000   0.000000   0.000000   0.000000
    13  H    0.000000   0.000000   0.000000   0.000000   0.000000   0.000000
    14  H    0.000000   0.000000   0.000000   0.000000   0.000000   0.000000
    15  H    0.000000   0.000000   0.000000   0.000000   0.000000   0.000000
    16  H    0.000000   0.000000   0.000000   0.000000   0.000000   0.000000
    17  H    0.000000   0.000000   0.000000   0.000000   0.000000   0.000000
    18  H    0.000000   0.000000   0.000000   0.000000   0.000000   0.000000
    19  H   -0.000001   0.000000   0.000000   0.000000   0.000000   0.000000
    20  H    0.000000   0.000001   0.000000   0.000000   0.000000   0.000000
    21  H    0.000000   0.000000   0.000000   0.000000   0.000000   0.000000
    22  H   -0.000005  -0.000006   0.000000   0.000000   0.000042   0.000001
    23  H    0.000000   0.000000   0.000000   0.000000   0.000000   0.000000
    24  H    0.000000   0.000000   0.000000   0.000000   0.000000   0.000000
    25  C    5.403176   0.350125   0.315945  -0.030204   0.293831  -0.095139
    26  H    0.350125   0.540090  -0.043086   0.004777  -0.033610   0.002656
    27  C    0.315945  -0.043086   5.320083   0.351541  -0.037228   0.008106
    28  H   -0.030204   0.004777   0.351541   0.510270  -0.004389   0.003875
    29  C    0.293831  -0.033610  -0.037228  -0.004389   4.344624   0.620457
    30  O   -0.095139   0.002656   0.008106   0.003875   0.620457   7.964590
    31  O   -0.088174   0.001560   0.002382   0.000046   0.299824  -0.084068
    32  H    0.011576  -0.000588  -0.000357  -0.000003  -0.017121   0.010382
    33  H   -0.029855  -0.001240   0.350275  -0.025865  -0.001056   0.001490
    34  C   -0.031139  -0.002855   0.302924  -0.020762   0.004802   0.000537
    35  O   -0.000195   0.010440  -0.088806   0.002673   0.000225  -0.000001
    36  O    0.001486   0.000284  -0.086030   0.004096  -0.000045   0.000000
    37  H   -0.000341  -0.000023   0.011672  -0.000379   0.000003   0.000000
              31         32         33         34         35         36
     1  Au   0.018268  -0.001135   0.000939  -0.002027   0.009097   0.000805
     2  S   -0.004663  -0.000969   0.005221   0.002795  -0.000584  -0.000893
     3  P   -0.000260  -0.000001   0.000000  -0.000002  -0.000006   0.000000
     4  C    0.000000   0.000000   0.000000   0.000000   0.000000   0.000000
     5  C    0.000000   0.000000   0.000000   0.000000   0.000000   0.000000
     6  C    0.000000   0.000000   0.000000   0.000000   0.000000   0.000000
     7  C    0.000000   0.000000   0.000000   0.000000   0.000000   0.000000
     8  C    0.000005   0.000000   0.000000   0.000000   0.000000   0.000000
     9  C   -0.000209   0.000010   0.000000   0.000000   0.000000   0.000000
    10  H   -0.000001   0.000000   0.000000   0.000000   0.000000   0.000000
    11  H    0.000000   0.000000   0.000000   0.000000   0.000000   0.000000
    12  H    0.000000   0.000000   0.000000   0.000000   0.000000   0.000000
    13  H    0.000000   0.000000   0.000000   0.000000   0.000000   0.000000
    14  H    0.000000   0.000000   0.000000   0.000000   0.000000   0.000000
    15  H    0.000000   0.000000   0.000000   0.000000   0.000000   0.000000
    16  H    0.000000   0.000000   0.000000   0.000000   0.000000   0.000000
    17  H    0.000000   0.000000   0.000000   0.000000   0.000000   0.000000
    18  H    0.000000   0.000000   0.000000   0.000000   0.000000   0.000000
    19  H    0.000000   0.000000   0.000000   0.000000  -0.000002   0.000000
    20  H   -0.000001   0.000000   0.000000   0.000000   0.000000   0.000000
    21  H    0.000000   0.000000   0.000000   0.000000   0.000000   0.000000
    22  H    0.001225  -0.000010   0.000000   0.000000   0.000000   0.000000
    23  H    0.000000   0.000000   0.000000   0.000000   0.000000   0.000000
    24  H   -0.000002   0.000000   0.000000   0.000000   0.000000   0.000000
    25  C   -0.088174   0.011576  -0.029855  -0.031139  -0.000195   0.001486
    26  H    0.001560  -0.000588  -0.001240  -0.002855   0.010440   0.000284
    27  C    0.002382  -0.000357   0.350275   0.302924  -0.088806  -0.086030
    28  H    0.000046  -0.000003  -0.025865  -0.020762   0.002673   0.004096
    29  C    0.299824  -0.017121  -0.001056   0.004802   0.000225  -0.000045
    30  O   -0.084068   0.010382   0.001490   0.000537  -0.000001   0.000000
    31  O    8.190427   0.227684   0.000054  -0.000009  -0.000001   0.000000
    32  H    0.227684   0.357659  -0.000025   0.000000   0.000000   0.000000
    33  H    0.000054  -0.000025   0.547085  -0.025219  -0.000613   0.000163
    34  C   -0.000009   0.000000  -0.025219   4.302117   0.619244   0.304539
    35  O   -0.000001   0.000000  -0.000613   0.619244   7.955416  -0.086771
    36  O    0.000000   0.000000   0.000163   0.304539  -0.086771   8.196339
    37  H    0.000000   0.000000  -0.000403  -0.017775   0.010681   0.227898
              37
     1  Au   0.000189
     2  S    0.000010
     3  P    0.000000
     4  C    0.000000
     5  C    0.000000
     6  C    0.000000
     7  C    0.000000
     8  C    0.000000
     9  C    0.000000
    10  H    0.000000
    11  H    0.000000
    12  H    0.000000
    13  H    0.000000
    14  H    0.000000
    15  H    0.000000
    16  H    0.000000
    17  H    0.000000
    18  H    0.000000
    19  H    0.000000
    20  H    0.000000
    21  H    0.000000
    22  H    0.000000
    23  H    0.000000
    24  H    0.000000
    25  C   -0.000341
    26  H   -0.000023
    27  C    0.011672
    28  H   -0.000379
    29  C    0.000003
    30  O    0.000000
    31  O    0.000000
    32  H    0.000000
    33  H   -0.000403
    34  C   -0.017775
    35  O    0.010681
    36  O    0.227898
    37  H    0.358428
 Mulliken charges:
               1
     1  Au  -0.113086
     2  S   -0.149046
     3  P    0.448319
     4  C   -0.453152
     5  C   -0.458734
     6  C   -0.444310
     7  C   -0.470676
     8  C   -0.443221
     9  C   -0.475281
    10  H    0.198412
    11  H    0.195244
    12  H    0.167279
    13  H    0.159818
    14  H    0.159555
    15  H    0.169243
    16  H    0.188323
    17  H    0.161350
    18  H    0.158608
    19  H    0.213977
    20  H    0.194471
    21  H    0.168096
    22  H    0.212092
    23  H    0.162396
    24  H    0.154459
    25  C   -0.320947
    26  H    0.216709
    27  C   -0.350838
    28  H    0.204512
    29  C    0.574516
    30  O   -0.436150
    31  O   -0.564086
    32  H    0.412897
    33  H    0.179049
    34  C    0.562830
    35  O   -0.430797
    36  O   -0.561872
    37  H    0.410042
 Sum of Mulliken charges =   0.00000
 Mulliken charges with hydrogens summed into heavy atoms:
               1
     1  Au  -0.113086
     2  S   -0.149046
     3  P    0.448319
     4  C   -0.059497
     5  C    0.027919
     6  C   -0.086744
     7  C    0.063259
     8  C   -0.080654
     9  C    0.053665
    25  C   -0.104238
    27  C    0.032722
    29  C    0.574516
    30  O   -0.436150
    31  O   -0.151189
    34  C    0.562830
    35  O   -0.430797
    36  O   -0.151830
 Electronic spatial extent (au):  <R**2>=           8087.1647
 Charge=              0.0000 electrons
 Dipole moment (field-independent basis, Debye):
    X=             -8.8855    Y=             -0.4804    Z=              2.8370  Tot=              9.3398
 Quadrupole moment (field-independent basis, Debye-Ang):
   XX=           -117.5892   YY=           -127.0217   ZZ=           -137.0352
   XY=             -7.4871   XZ=              5.8216   YZ=              6.0473
 Traceless Quadrupole moment (field-independent basis, Debye-Ang):
   XX=              9.6261   YY=              0.1937   ZZ=             -9.8198
   XY=             -7.4871   XZ=              5.8216   YZ=              6.0473
 Octapole moment (field-independent basis, Debye-Ang**2):
  XXX=            -80.4456  YYY=            -15.8443  ZZZ=            -40.7775  XYY=            -11.1177
  XXY=            -66.0659  XXZ=             10.5237  XZZ=            -28.9122  YZZ=              4.1382
  YYZ=             -4.8201  XYZ=             15.6312
 Hexadecapole moment (field-independent basis, Debye-Ang**3):
 XXXX=          -7307.7748 YYYY=          -1702.9904 ZZZZ=           -852.6853 XXXY=           -345.8798
 XXXZ=            203.6842 YYYX=           -154.7555 YYYZ=             60.4781 ZZZX=             32.0387
 ZZZY=             22.4223 XXYY=          -1496.4585 XXZZ=          -1408.9404 YYZZ=           -477.1864
 XXYZ=             26.5031 YYXZ=             47.0879 ZZXY=             11.5653
 N-N= 1.732390734565D+03 E-N=-7.125945930364D+03  KE= 1.470965707187D+03
   1 Symmetry operations used in ECPInt.
 ECPInt:  NShTT=    7260 NPrTT=   40281 LenC2=    6166 LenP2D=   20236.
 LDataN:  DoStor=T MaxTD1= 8 Len=  415
 Calling FoFJK, ICntrl=      2127 FMM=F ISym2X=0 I1Cent= 0 IOpClX= 0 NMat=1 NMatS=1 NMatT=0.
 Defaulting to unpruned grid for atomic number  79.
 Defaulting to unpruned grid for atomic number  79.
 Defaulting to unpruned grid for atomic number  79.
 Defaulting to unpruned grid for atomic number  79.
 Defaulting to unpruned grid for atomic number  79.
 Defaulting to unpruned grid for atomic number  79.
 Defaulting to unpruned grid for atomic number  79.
 Defaulting to unpruned grid for atomic number  79.
 ***** Axes restored to original set *****
 -------------------------------------------------------------------
 Center     Atomic                   Forces (Hartrees/Bohr)
 Number     Number              X              Y              Z
 -------------------------------------------------------------------
      1       79           0.004811845    0.000673776   -0.001495173
      2       16          -0.006293490   -0.004813327   -0.010387171
      3       15           0.013655890    0.001040821   -0.001878009
      4        6          -0.001910258    0.000720895   -0.004153768
      5        6          -0.003025133    0.001788959   -0.002012743
      6        6          -0.004310852   -0.001183240   -0.002770031
      7        6           0.002854176   -0.004355604    0.000406613
      8        6          -0.005038247   -0.002339925    0.002683409
      9        6           0.001544024    0.003454908    0.000183527
     10        1          -0.000153683    0.001732768   -0.000702160
     11        1          -0.000546304    0.000851502    0.000457332
     12        1          -0.002294311    0.000815717   -0.000644827
     13        1          -0.000827100    0.000522129    0.000907906
     14        1          -0.000710600   -0.000641051    0.000005129
     15        1          -0.003004737   -0.002403770    0.000434902
     16        1          -0.000524087    0.000406687   -0.000127896
     17        1           0.000356826   -0.001818241    0.000976018
     18        1           0.000134214    0.000191075    0.002471255
     19        1          -0.001232826    0.000321441    0.000250351
     20        1           0.001027278   -0.001402525    0.002373563
     21        1           0.000364897    0.000829691    0.002218774
     22        1          -0.001322328   -0.000061545   -0.000132319
     23        1          -0.000491210    0.000151719   -0.000628649
     24        1           0.000862823    0.000912270    0.001208731
     25        6          -0.002397261    0.003005139    0.009215257
     26        1           0.002370124   -0.001197867   -0.000389848
     27        6           0.005640842    0.004401464    0.002359351
     28        1          -0.000186633    0.000626962   -0.000989920
     29        6           0.011072915   -0.005302040   -0.006899545
     30        8           0.004152809    0.006066805   -0.001544848
     31        8          -0.016160488   -0.004629994    0.011688644
     32        1           0.002473518    0.010604254   -0.003253773
[...]
 03498,0.00018186,-0.00007550,-0.00003774,0.00006994,0.00000385,0.00002
 807,-0.00005100,-0.00013426,0.00005773,0.00005750,-0.00001192,-0.00000
 268,-0.00002999,-0.00023803,-0.00002741,-0.00002545,-0.00002086,-0.000
 02705,0.00003179,0.00001010,-0.00000914,-0.00000265,0.00001306,0.00000
 127,0.00000530,-0.00002941,0.00000655,-0.00000157,-0.00000186,-0.00000
 271,0.00001083,-0.00000126,-0.00000577,0.00000625,-0.00003438,-0.00006
 823,0.00000207,0.00000821,0.00000036,0.00000090,-0.00001023,-0.0000182
 4,0.00000877,-0.00000079,0.00000910,0.00000798,-0.00000464,0.00002897,
 -0.00000660,0.00000320,-0.00000528,-0.00001441,-0.00001435,0.00005469,
 0.00009443,-0.00001552,-0.00002096,-0.00003370,-0.00001073,0.00002298,
 0.00002036,0.00000832,0.00000087,-0.00000513,-0.01810838,-0.01303985,-
 0.02102802,0.00055330,-0.00032571,0.00042597,-0.11695351,-0.06688214,-
 0.09272636,0.00718823,0.00682989,0.00785951,-0.00156333,-0.00150574,-0
 .00038793,0.00165856,0.00044691,0.00017784,0.00047598,-0.00020826,-0.0
 0008251,-0.00009436,0.00003443,-0.00011310,0.13054110,0.00006365,0.000
 13740,0.00048012,0.00195301,0.00011152,0.00020103,-0.00003741,-0.00002
 496,-0.00012534,0.00002209,0.00001677,-0.00002142,-0.00000095,-0.00001
 023,0.00001630,0.00003301,-0.00001568,-0.00000994,0.00000478,-0.000001
 36,0.00000420,0.00009073,0.00001165,0.00000626,0.00001980,0.00000909,-
 0.00001194,-0.00000187,-0.00000003,0.00000167,-0.00000379,-0.00000037,
 0.00000054,0.00000933,-0.00000167,0.00000064,0.00000042,0.00000153,-0.
 00000320,-0.00000062,0.00000098,-0.00000175,0.00000819,0.00001990,0.00
 000095,-0.00000050,0.00000065,0.00000094,0.00000202,0.00000462,-0.0000
 0233,-0.00000049,-0.00000125,-0.00000108,0.00000170,-0.00000581,0.0000
 0154,-0.00000175,-0.00000082,0.00000359,0.00000348,-0.00002308,-0.0000
 3685,0.00000657,0.00001193,0.00000584,-0.00000153,-0.00000633,-0.00000
 376,-0.00000017,-0.00000137,0.00000267,0.00435401,0.00463499,0.0065920
 7,-0.00034434,0.00009136,-0.00016656,-0.07071477,-0.11183346,-0.091207
 32,0.00430863,0.00434808,0.00500829,0.00225782,0.00031633,0.00067026,-
 0.00030754,-0.00065941,-0.00024198,-0.00052319,0.00015136,0.00040679,0
 .00008867,0.00000011,0.00003195,0.07319740,0.12224129,0.00024783,0.000
 16694,-0.00017242,-0.00078260,-0.00002290,0.00094450,0.00004285,-0.000
 05724,-0.00000508,-0.00005796,-0.00002030,0.00004820,0.00000130,0.0000
 2100,-0.00003504,-0.00009248,0.00003956,0.00004054,-0.00000445,0.00000
 152,-0.00001258,-0.00007785,-0.00001307,-0.00001290,0.00000234,-0.0000
 0710,0.00001048,0.00000176,-0.00000135,0.00000212,0.00000058,-0.000001
 52,0.00000187,-0.00001906,0.00000407,-0.00000021,0.00000088,-0.0000018
 6,0.00000487,0.00000082,-0.00000342,0.00000348,-0.00001999,-0.00004352
 ,0.00000262,0.00000488,0.00000149,-0.00000078,-0.00000350,-0.00000932,
 0.00000382,0.00000126,0.00000343,0.00000295,-0.00000103,0.00001198,-0.
 00000155,0.00000451,0.00000168,-0.00000192,-0.00000523,0.00001509,0.00
 003491,-0.00000984,-0.00000913,-0.00000840,-0.00000274,0.00000712,0.00
 000813,-0.00000041,0.00000046,-0.00000500,0.00155937,0.00180356,0.0014
 1820,-0.00041750,0.00027235,0.00021911,-0.09233491,-0.08649777,-0.1653
 1839,-0.01618129,-0.01571149,-0.01959988,-0.00161354,-0.00188159,0.001
 39454,0.00172327,0.00029406,-0.00009550,0.00054520,0.00037200,-0.00040
 320,-0.00011600,0.00007843,0.00005710,0.10291701,0.09755070,0.17794771
 ,-0.00045130,-0.00010438,0.00025256,0.00125615,-0.00107947,0.00086425,
 -0.00125463,0.00006055,0.00023853,0.00027672,0.00007527,-0.00019745,-0
 .00001682,-0.00009390,0.00016953,0.00031541,-0.00008016,-0.00013719,-0
 .00010330,-0.00001550,0.00008432,0.00022554,0.00004427,0.00001842,-0.0
 0004880,0.00003246,-0.00001378,-0.00002111,0.00003207,-0.00001907,-0.0
 0001374,0.00000631,-0.00001226,0.00010662,-0.00003466,0.00001374,-0.00
 001016,0.00001464,-0.00002547,-0.00000131,0.00002576,-0.00002692,0.000
 11549,0.00009872,-0.00001198,-0.00002199,-0.00002365,0.00003530,0.0000
 7481,0.00005259,-0.00000354,-0.00006196,-0.00000684,0.00004008,-0.0000
 1767,-0.00008874,-0.00011579,-0.00005571,-0.00001762,0.00006522,0.0000
 6520,-0.00004905,-0.00010434,0.00002557,0.00006500,0.00001737,0.000006
 10,-0.00001418,-0.00004912,0.00002481,-0.00001931,0.00004308,-0.004088
 28,0.03586103,-0.00700378,-0.00180477,0.00232085,0.00108288,-0.0877100
 8,0.02122305,-0.00815078,-0.00052631,-0.01534943,0.00270772,-0.0064504
 1,0.00040277,0.00170264,0.00068276,-0.00189583,-0.00001316,-0.00007648
 ,0.00163886,0.00007201,-0.00041286,0.00035547,0.00047540,0.00246998,-0
 .02078382,0.00547437,0.56699461,0.00088213,-0.00004018,-0.00100745,-0.
 00248633,-0.00130141,0.00051227,0.00130661,0.00034565,-0.00015546,-0.0
 0040681,-0.00018364,0.00026629,0.00000674,0.00013122,-0.00019221,-0.00
 040620,0.00019986,0.00016194,-0.00016217,-0.00006018,-0.00007151,-0.00
 059020,-0.00007045,-0.00004393,0.00016614,-0.00005627,-0.00001999,0.00
 005694,-0.00006678,0.00004720,0.00002588,0.00000456,0.00000909,-0.0001
 0974,0.00002616,-0.00000078,0.00000874,-0.00000586,0.00002299,-0.00002
 407,-0.00004122,0.00001965,-0.00008427,-0.00026339,0.00003868,0.000021
 01,-0.00001852,0.00001250,-0.00005337,-0.00010359,0.00004603,-0.000008
 47,0.00005142,0.00002600,-0.00002608,0.00016402,-0.00007882,0.00004334
 ,0.00000918,-0.00000814,-0.00008596,0.00006088,0.00020967,0.00001343,0
 .00001076,-0.00005914,-0.00003398,0.00002646,0.00004979,-0.00000753,-0
 .00001580,-0.00001816,0.01733304,-0.01074456,-0.00323226,-0.00238849,0
 .00074434,0.00141985,0.01028985,-0.18343029,0.02129190,-0.00257644,-0.
 00312501,-0.00087761,0.00125034,-0.00275039,-0.00075390,-0.00198511,0.
 00149630,0.00023384,-0.00229376,0.00251223,0.00145440,0.00011921,0.000
 05896,0.00014810,-0.00057944,-0.01864729,0.00371402,0.06304398,0.71881
 772,-0.00027439,-0.00054470,0.00003840,0.00063184,0.00129886,-0.000587
 23,0.00008075,0.00006393,0.00015679,0.00001061,0.00001227,-0.00002325,
 0.00000846,0.00000650,-0.00001113,0.00007650,-0.00006405,-0.00004875,0
 .00011719,0.00003829,0.00000346,0.00009123,-0.00001955,0.00002775,-0.0
 0001148,0.00000628,-0.00002464,-0.00001067,0.00001208,-0.00000325,-0.0
 0000841,-0.00000134,-0.00000913,-0.00001586,0.00001066,-0.00000885,0.0
 0000827,-0.00000956,-0.00000140,0.00000976,-0.00000071,0.00000830,-0.0
 0001147,0.00008445,-0.00001293,-0.00001749,0.00001474,-0.00003592,-0.0
 0003220,0.00000762,-0.00001667,0.00006432,-0.00002807,-0.00006417,0.00
 003072,-0.00000467,0.00013567,0.00003268,0.00001709,-0.00004350,-0.000
 01297,-0.00000613,-0.00003210,0.00000003,-0.00003237,0.00004999,0.0000
 2794,-0.00002065,-0.00000649,-0.00002958,0.00002578,-0.00002062,-0.003
 06945,-0.00083231,-0.00049645,0.00353134,-0.00268594,-0.00116459,-0.00
 480170,0.01504207,-0.09149435,-0.00452242,0.03338440,-0.00525821,0.000
 92507,-0.00103928,-0.00035340,0.00128710,0.00093600,0.00033568,0.00053
 593,-0.00055320,-0.00043684,0.00007110,-0.00010876,-0.00005621,0.00392
 996,-0.02523750,0.00512199,-0.30977971,-0.22091480,0.56164563,0.000127
 43,-0.00002955,-0.00005101,-0.00016131,0.00140459,-0.00058692,0.000693
 43,-0.00004531,-0.00014109,-0.00013460,-0.00003044,0.00010093,0.000010
 26,0.00004734,-0.00008965,-0.00014582,0.00002592,0.00007036,0.00010403
 ,0.00001420,-0.00005780,-0.00008905,-0.00002157,-0.00000310,0.00002433
 ,-0.00002063,0.00000398,0.00000514,-0.00000997,0.00000678,0.00000445,-
 0.00000495,0.00000610,-0.00005663,0.00001958,-0.00000902,0.00000581,-0
 .00000823,0.00001461,0.00000420,-0.00001275,0.00001493,-0.00006592,-0.
 00002495,0.00000002,0.00001057,0.00001746,-0.00002404,-0.00005007,-0.0
 0002348,-0.00000578,0.00004492,0.00000182,-0.00003084,0.00003994,0.000
 04485,0.00009881,0.00003477,0.00000710,-0.00004602,-0.00003552,0.00002
 341,0.00004423,-0.00001186,-0.00003742,-0.00000734,-0.00000410,0.00000
 848,0.00002871,-0.00001552,0.00001568,-0.00002381,-0.00289715,0.000881
 66,0.00146683,0.00188028,-0.00073090,-0.00189821,0.00858526,-0.0088155
 8,0.01064368,0.00187440,0.00009405,-0.00079299,0.00034180,-0.00156082,
 -0.00136925,0.00092332,0.00145603,0.00003552,0.00015092,0.00001823,0.0
 0005418,0.00005958,-0.00007555,-0.00010134,0.00056023,0.00325013,-0.00
 055864,-0.27938720,-0.18160615,0.23578650,0.31469937,-0.00057300,0.000
 11210,0.00031742,0.00122472,0.00077237,0.00005674,-0.00061214,-0.00028
 449,0.00015164,0.00021735,0.00010645,-0.00012723,0.00000056,-0.0000643
 6,0.00008607,0.00017656,-0.00010469,-0.00006810,0.00013678,0.00005348,
 0.00001764,0.00028899,0.00004220,0.00001851,-0.00009519,0.00002165,0.0
 0001880,-0.00003314,0.00004172,-0.00002970,-0.00001365,-0.00000507,-0.
 00000436,0.00004683,-0.00000813,-0.00000322,-0.00000305,-0.00000010,-0
 .00000885,0.00001773,0.00002123,-0.00000571,0.00002360,0.00014621,-0.0
 0002643,-0.00001129,0.00001666,-0.00001771,0.00002534,0.00005819,-0.00
 002709,0.00001908,-0.00003664,-0.00002563,0.00002439,-0.00010057,0.000
 08645,-0.00001909,-0.00000878,-0.00001228,0.00004121,-0.00002344,-0.00
 009711,-0.00001007,-0.00001315,0.00002781,0.00001840,-0.00000949,-0.00
 001983,0.00000233,0.00001570,0.00000303,-0.00460899,-0.00020160,0.0010
 6606,0.00000243,-0.00128984,0.00057926,-0.02197940,-0.02077996,0.03469
 749,0.00158544,-0.00880481,0.00053755,-0.00204765,0.00130361,0.0014975
 5,0.00152752,-0.00110300,-0.00056980,0.00141186,-0.00100653,-0.0008047
 7,-0.00014252,0.00004285,0.00000236,0.00032580,0.00021752,0.00059951,-
 0.17478801,-0.31195086,0.22963610,0.20634137,0.30221997,0.00027223,0.0
 0009199,-0.00011917,-0.00110402,0.00037508,0.00014707,0.00025564,0.000
 03694,-0.00018630,-0.00008371,-0.00002748,0.00007031,-0.00000436,0.000
 01566,-0.00003275,-0.00010038,0.00006191,0.00006979,-0.00003983,-0.000
 03356,-0.00004185,-0.00014774,0.00000560,-0.00002764,0.00001969,-0.000
 02019,0.00002404,0.00001348,-0.00001515,0.00000173,0.00001274,-0.00000
 036,0.00000929,-0.00001106,-0.00000108,0.00000480,-0.00000573,0.000006
 04,0.00000768,-0.00000737,-0.00000511,-0.00000151,-0.00001607,-0.00007
 342,0.00000825,0.00002335,-0.00000643,0.00002251,0.00000656,-0.0000154
 9,0.00001397,-0.00004891,0.00003136,0.00005050,-0.00000924,0.00001951,
 -0.00007948,-0.00001887,-0.00001735,0.00001937,-0.00000327,0.00001821,
 0.00005802,-0.00000214,0.00001729,-0.00005268,-0.00002899,0.00002621,0
 .00001838,0.00002195,-0.00001643,0.00001176,0.00359949,-0.00229092,-0.
 00070619,-0.00215514,0.00072291,0.00029793,0.01372786,0.01812842,0.003
 46374,0.00054086,0.00046073,0.00118176,0.00086220,-0.00003462,-0.00021
 993,-0.00109116,-0.00009027,0.00016884,-0.00061944,0.00036015,0.000545
 33,0.00002148,-0.00000897,-0.00005845,-0.00007965,0.00372950,-0.001837
 46,0.23227135,0.23632980,-0.35505816,-0.30834538,-0.26848379,0.3849295
 9,0.00029063,-0.00005074,-0.00013207,-0.00045826,0.00044015,-0.0002041
 0,0.00079733,0.00002387,-0.00011768,-0.00019170,-0.00006082,0.00013270
 ,0.00001218,0.00006883,-0.00011563,-0.00020124,0.00005842,0.00007916,0
 .00005712,0.00001096,-0.00005148,-0.00018327,-0.00002994,-0.00000912,0
 .00006149,-0.00002715,-0.00000734,0.00001359,-0.00002131,0.00001671,0.
 00000839,-0.00000430,0.00000670,-0.00007317,0.00002375,-0.00000986,0.0
 0000876,-0.00000997,0.00001693,0.00000042,-0.00001979,0.00001790,-0.00
 007391,-0.00006742,0.00001012,0.00001463,0.00001126,-0.00002219,-0.000
 04700,-0.00003924,0.00000201,0.00004256,0.00000607,-0.00002702,0.00000
 824,0.00005993,0.00007133,0.00004266,0.00001254,-0.00004361,-0.0000504
 8,0.00002689,0.00007484,-0.00000354,-0.00003138,-0.00000641,-0.0000042
 5,0.00000706,0.00003263,-0.00002189,0.00001272,-0.00002830,0.00129112,
 0.00139411,0.00034268,0.00103093,-0.00127946,-0.00015397,-0.00308649,0
 .01056674,0.00852291,-0.00043039,0.00059764,-0.00062640,-0.00015850,-0
 .00171770,-0.00082968,0.00007118,0.00123086,0.00007433,-0.00043431,0.0
 0081753,0.00029431,0.00003366,-0.00006112,0.00001736,-0.00143231,0.002
 10519,-0.00032806,-0.18819885,0.05281538,0.08623246,-0.04789704,-0.000
 72222,0.06599120,0.27695754,-0.00032736,0.00010203,0.00031872,0.000337
 25,0.00033106,-0.00006069,-0.00069394,-0.00014512,0.00007542,0.0001856
 3,0.00007603,-0.00011940,-0.00000687,-0.00006323,0.00009640,0.00017803
 ,-0.00007215,-0.00006828,0.00002166,0.00001325,0.00003957,0.00023178,0
 .00003193,0.00001138,-0.00008180,0.00002522,0.00001742,-0.00002300,0.0
 0002784,-0.00002226,-0.00000913,-0.00000049,-0.00000278,0.00005866,-0.
 00001734,0.00000434,-0.00000715,0.00000619,-0.00001120,0.00000753,0.00
 002004,-0.00001303,0.00004928,0.00009421,-0.00001428,-0.00000717,0.000
 00102,0.00000767,0.00003801,0.00004584,-0.00001515,-0.00001832,-0.0000
 1456,0.00000894,-0.00000083,-0.00007420,-0.00001451,-0.00003074,-0.000
 00778,0.00001997,0.00004578,-0.00002210,-0.00008366,-0.00000727,0.0000
 0341,0.00001538,0.00001012,-0.00000601,-0.00002461,0.00001247,-0.00000
 137,0.00001696,-0.00382717,-0.00681621,0.00055706,0.00007067,0.0004096
 9,-0.00010657,0.03525626,-0.02326208,-0.01579507,0.00168837,0.00014185
 ,-0.00114606,0.00139003,0.00188444,0.00088630,0.00040740,-0.00099429,-
 0.00016880,0.00100359,-0.00167091,-0.00060678,0.00003299,-0.00005904,-
 0.00017043,0.00106812,-0.00107139,-0.00047830,0.07927466,-0.15963957,-
 0.03301454,-0.01258182,0.03768595,0.00725489,-0.09862264,0.57697070,0.
 00001692,0.00019706,0.00012026,-0.00005559,-0.00018259,0.00017770,-0.0
 0028657,-0.00006072,-0.00005481,0.00005830,0.00002074,-0.00003088,-0.0
 0000541,-0.00002463,0.00003830,0.00004012,0.00000060,-0.00000656,-0.00
 003704,-0.00001156,0.00001215,0.00004368,0.00001999,-0.00000703,-0.000
 02221,0.00000546,0.00001521,-0.00000406,0.00000520,-0.00000731,0.00000
 077,-0.00000004,0.00000446,0.00002721,-0.00001069,0.00000476,-0.000006
 33,0.00000671,-0.00000235,-0.00000122,0.00000721,-0.00000851,0.0000228
 5,0.00000168,0.00000063,0.00000745,-0.00000612,0.00001962,0.00002928,0
 .00001365,0.,-0.00003677,0.00000930,0.00003347,-0.00001515,-0.00002873
 ,-0.00006723,-0.00002410,-0.00000971,0.00002545,0.00002105,-0.00000610
 ,-0.00001660,-0.00000148,0.00001583,-0.00001507,-0.00000806,0.00000692
 ,-0.00000508,0.00001625,-0.00001137,0.00001463,-0.00127504,0.00059676,
 0.00052088,-0.00081405,0.00117432,0.00036118,0.00208838,-0.00006303,0.
 00768475,-0.00000901,-0.00185733,0.00107244,-0.00026198,0.00078928,0.0
 0042125,-0.00011309,-0.00060767,-0.00002070,0.00008066,-0.00017123,0.0
 0003905,-0.00003787,0.00004810,-0.00002194,-0.00017121,0.00147844,0.00
 026915,0.07704741,-0.01066233,-0.12434245,0.06969202,-0.00221909,-0.02
 785895,-0.16321425,-0.10046301,0.21330431,-0.00008358,-0.00004437,0.00
 000622,0.00017892,-0.00026887,-0.00001597,-0.00019804,0.00003711,0.000
 05690,0.00004730,0.00000875,-0.00003841,-0.00000343,-0.00001620,0.0000
 3151,0.00005963,-0.00001619,-0.00002854,-0.00003107,-0.00000615,0.0000
 1983,0.00004283,0.00000191,0.00000626,-0.00000755,0.00000911,-0.000006
 09,-0.00000129,0.00000375,-0.00000131,-0.00000334,0.00000234,-0.000004
 69,0.00001917,-0.00000619,0.00000292,-0.00000113,0.00000186,-0.0000063
 4,-0.00000159,0.00000431,-0.00000448,0.00002411,0.00001465,-0.00000169
 ,-0.00000951,-0.00000431,0.00000382,0.00000684,0.00000652,0.00000208,-
 0.00000489,-0.00000386,0.00000030,0.00000095,-0.00000289,-0.00001526,-
 0.00000757,-0.00000037,0.00001188,0.00001088,-0.00000914,-0.00002061,0
 .00000397,0.00001029,0.00000720,0.00000326,-0.00000625,-0.00001139,0.0
 0000291,-0.00000296,0.00000686,0.00028100,0.00076408,0.00010853,-0.000
 10097,0.00016126,0.00004678,-0.00132887,0.00182347,0.00530195,-0.00013
 544,-0.00052983,0.00005897,-0.00017619,0.00039380,0.00004634,-0.000116
 12,-0.00024045,0.00000861,-0.00000246,-0.00003565,-0.00004647,-0.00001
 772,0.00002681,0.00003240,-0.00032065,0.00094210,0.00009883,-0.0019060
 4,0.04853182,-0.01089197,0.00076737,-0.00779890,-0.00371764,-0.0377958
 2,-0.00512313,0.01720816,0.04080413,0.00006060,-0.00000437,0.00000288,
 -0.00022874,0.00012657,-0.00002159,0.00010519,0.00001640,-0.00001999,-
 0.00002747,-0.00001256,0.00001672,0.00000166,0.00000989,-0.00001375,-0
 .00003004,0.00000824,0.00001104,-0.00000059,-0.00000105,-0.00000513,-0
 .00002327,-0.00000886,-0.00000096,0.00000717,-0.00000112,-0.00000231,0
 .00000413,-0.00000427,0.00000241,0.00000186,0.00000123,-0.00000091,-0.
 00000839,0.00000258,-0.00000053,0.00000097,-0.00000114,0.00000127,-0.0
 0000133,-0.00000328,0.00000208,-0.00000786,-0.00001397,0.00000223,0.00
 000027,0.00000153,-0.00000292,-0.00001141,-0.00000852,0.00000216,0.000
 00672,0.00000116,-0.00000488,0.00000369,0.00001702,0.00000751,0.000006
 57,0.00000306,-0.00000336,-0.00000668,0.00000383,0.00000924,-0.0000021
 1,-0.00000387,0.00000063,0.00000064,-0.00000076,0.00000226,-0.00000208
 ,0.00000093,-0.00000338,-0.00063360,-0.00129469,-0.00020221,0.00018574
 ,-0.00016608,-0.00004250,0.00519161,0.00218787,-0.00106164,-0.00031001
 ,0.00070405,0.00003097,0.00047318,0.00009815,-0.00021588,-0.00005114,0
 .00005589,0.00001583,-0.00001988,-0.00014778,0.00001564,0.00004754,-0.
 00002244,-0.00002253,-0.00036441,-0.00002258,-0.00019911,0.00981626,-0
 .03214448,0.00452101,-0.00803184,0.00291766,0.00344844,0.03247530,-0.4
 2393286,0.11199872,-0.03862825,0.45163861,-0.00001074,-0.00002408,-0.0
 0002054,-0.00005301,-0.00005495,-0.00012532,-0.00000026,0.00001896,0.0
 0003292,-0.00000137,-0.00000332,-0.00000276,0.00000025,0.00000240,-0.0
 0000074,0.00000272,-0.00000281,-0.00000552,-0.00000546,0.00000320,0.00
 000507,0.00000419,-0.00000525,0.00000296,0.00000321,0.00000271,-0.0000
 0576,0.00000045,-0.00000024,0.00000251,-0.00000228,0.00000075,-0.00000
 338,-0.00000168,0.00000136,-0.00000017,0.00000169,-0.00000167,-0.00000
 215,-0.00000026,-0.00000089,0.00000138,0.00000156,0.00000094,-0.000000
 32,-0.00000686,0.00000034,-0.00000538,-0.00000451,-0.00000189,0.000002
 75,0.00000947,-0.00000640,-0.00001075,0.00000441,0.00000652,0.00001403
 ,0.00000349,0.00000310,-0.00000187,-0.00000160,-0.00000216,-0.00000237
 ,0.00000086,-0.00000037,0.00000759,0.00000437,-0.00000525,-0.00000350,
 -0.00000345,0.00000220,-0.00000216,-0.00003527,-0.00120642,0.00060032,
 -0.00001210,-0.00004157,-0.00005111,0.00562132,0.00064601,0.00148791,-
 0.00017762,-0.00026617,0.00032464,0.00044558,0.00020337,-0.00007896,-0
 .00016740,-0.00002901,0.00000776,-0.00002976,-0.00013220,-0.00003927,0
 .00003331,-0.00001867,-0.00000789,-0.00042085,0.00087668,-0.00002599,0
 .00298816,-0.02791750,0.01208704,-0.00392595,0.00315072,-0.00484416,0.
 00399088,0.14306901,-0.07167419,-0.00825549,-0.11826745,0.06233734\\0.
 00000973,0.00000899,-0.00000863,-0.00000648,0.00000925,0.00000581,0.00
 000697,-0.00001114,0.00000979,-0.00000033,0.00001326,-0.00000511,0.000
 00195,0.00000037,0.00000179,-0.00000912,-0.00000131,-0.00000833,0.0000
 0162,0.00000128,-0.00000526,-0.00000451,-0.00000779,0.00000623,-0.0000
 0226,-0.00000720,0.00000510,0.00000066,-0.00000028,0.00000194,-0.00000
 022,0.00000264,-0.00000021,0.00000004,0.00000203,0.00000154,-0.0000008
 2,-0.00000206,-0.00000139,0.00000080,0.00000160,-0.00000336,0.00000289
 ,0.00000017,-0.00000847,0.00000401,0.00000006,-0.00000503,0.00000226,-
 0.00000232,-0.00000969,0.00000038,-0.00000584,-0.00000841,0.00000080,-
 0.00000084,-0.00000876,-0.00000161,-0.00000195,-0.00000157,0.00000138,
 -0.00000550,-0.00000445,-0.00000078,-0.00000319,0.00000304,-0.00000232
 ,-0.00000583,0.00000409,-0.00000036,-0.00000141,0.00000487,0.00000585,
 -0.00001261,-0.00000316,0.00000139,0.00000094,0.00000270,-0.00000775,-
 0.00000574,0.00000267,0.,0.00000518,0.00000445,-0.00001188,0.00001376,
 0.00000863,-0.00000480,-0.00000174,0.00001170,0.00001304,0.00000592,0.
 00000033,-0.00000556,-0.00000684,0.00001042,0.00000192,0.00000201,0.00
 000471,-0.00001526,0.00000898,0.00001574,0.00000755,0.00000377,-0.0000
 1250,0.00000930,-0.00000083,-0.00000754,0.00000150,0.00000423,-0.00000
 366\\\@


 IT IS NOT EASY TO DESCRIBE
     THE SEA WITH THE MOUTH

                   -- KOKYU
 Job cpu time:       0 days  0 hours 47 minutes  5.0 seconds.
 File lengths (MBytes):  RWF=    474 Int=      0 D2E=      0 Chk=      9 Scr=      1
 Normal termination of Gaussian 09 at Mon Apr 17 09:30:00 2023.
