 Entering Gaussian System, Link 0=g09
 Input=au-1to3-ts-2-af11-cterm-se-ts-p.com
 Output=au-1to3-ts-2-af11-cterm-se-ts-p.log
 Initial command:
 /home/scr/programs/g09/l1.exe "/home/scr/guest2/Gau-11324.inp" -scrdir="/home/scr/guest2/"
 Entering Link 1 = /home/scr/programs/g09/l1.exe PID=     11325.
  
 Copyright (c) 1988,1990,1992,1993,1995,1998,2003,2009,2013,
            Gaussian, Inc.  All Rights Reserved.
  
 This is part of the Gaussian(R) 09 program.  It is based on
 the Gaussian(R) 03 system (copyright 2003, Gaussian, Inc.),
 the Gaussian(R) 98 system (copyright 1998, Gaussian, Inc.),
 the Gaussian(R) 94 system (copyright 1995, Gaussian, Inc.),
 the Gaussian 92(TM) system (copyright 1992, Gaussian, Inc.),
 the Gaussian 90(TM) system (copyright 1990, Gaussian, Inc.),
 the Gaussian 88(TM) system (copyright 1988, Gaussian, Inc.),
 the Gaussian 86(TM) system (copyright 1986, Carnegie Mellon
 University), and the Gaussian 82(TM) system (copyright 1983,
 Carnegie Mellon University). Gaussian is a federally registered
 trademark of Gaussian, Inc.
  
 This software contains proprietary and confidential information,
 including trade secrets, belonging to Gaussian, Inc.
  
 This software is provided under written license and may be
 used, copied, transmitted, or stored only in accord with that
 written license.
  
 The following legend is applicable only to US Government
 contracts under FAR:
  
                    RESTRICTED RIGHTS LEGEND
  
 Use, reproduction and disclosure by the US Government is
 subject to restrictions as set forth in subparagraphs (a)
 and (c) of the Commercial Computer Software - Restricted
 Rights clause in FAR 52.227-19.
  
 Gaussian, Inc.
 340 Quinnipiac St., Bldg. 40, Wallingford CT 06492
  
  
 ---------------------------------------------------------------
 Warning -- This program may not be used in any manner that
 competes with the business of Gaussian, Inc. or will provide
 assistance to any competitor of Gaussian, Inc.  The licensee
 of this program is prohibited from giving any competitor of
 Gaussian, Inc. access to this program.  By using this program,
 the user acknowledges that Gaussian, Inc. is engaged in the
 business of creating and licensing software in the field of
 computational chemistry and represents and warrants to the
 licensee that it is not a competitor of Gaussian, Inc. and that
 it will not use this program in any manner prohibited above.
 ---------------------------------------------------------------
  

 Cite this work as:
 Gaussian 09, Revision D.01,
 M. J. Frisch, G. W. Trucks, H. B. Schlegel, G. E. Scuseria, 
 M. A. Robb, J. R. Cheeseman, G. Scalmani, V. Barone, B. Mennucci, 
 G. A. Petersson, H. Nakatsuji, M. Caricato, X. Li, H. P. Hratchian, 
 A. F. Izmaylov, J. Bloino, G. Zheng, J. L. Sonnenberg, M. Hada, 
 M. Ehara, K. Toyota, R. Fukuda, J. Hasegawa, M. Ishida, T. Nakajima, 
 Y. Honda, O. Kitao, H. Nakai, T. Vreven, J. A. Montgomery, Jr., 
 J. E. Peralta, F. Ogliaro, M. Bearpark, J. J. Heyd, E. Brothers, 
 K. N. Kudin, V. N. Staroverov, T. Keith, R. Kobayashi, J. Normand, 
 K. Raghavachari, A. Rendell, J. C. Burant, S. S. Iyengar, J. Tomasi, 
 M. Cossi, N. Rega, J. M. Millam, M. Klene, J. E. Knox, J. B. Cross, 
 V. Bakken, C. Adamo, J. Jaramillo, R. Gomperts, R. E. Stratmann, 
 O. Yazyev, A. J. Austin, R. Cammi, C. Pomelli, J. W. Ochterski, 
 R. L. Martin, K. Morokuma, V. G. Zakrzewski, G. A. Voth, 
 P. Salvador, J. J. Dannenberg, S. Dapprich, A. D. Daniels, 
 O. Farkas, J. B. Foresman, J. V. Ortiz, J. Cioslowski, 
 and D. J. Fox, Gaussian, Inc., Wallingford CT, 2013.
 
 ******************************************
 Gaussian 09:  EM64L-G09RevD.01 24-Apr-2013
                17-Apr-2023 
 ******************************************
 %mem=50000MB
 %nprocshared=12
 Will use up to   12 processors via shared memory.
 ----------------------------------------
 # opt freq=noraman b3lyp/gen pseudo=read
 ----------------------------------------
 1/14=-1,18=20,19=15,26=3,38=1/1,3;
 2/9=110,12=2,17=6,18=5,40=1/2;
 3/5=7,11=2,16=1,17=8,25=1,30=1,71=1,74=-5/1,2,3;
 4//1;
 5/5=2,38=5/2;
 6/7=2,8=2,9=2,10=2,28=1/1;
 7//1,2,3,16;
 1/14=-1,18=20,19=15,26=3/3(2);
 2/9=110/2;
 99//99;
 2/9=110/2;
 3/5=7,6=1,11=2,16=1,17=8,25=1,30=1,71=1,74=-5,82=7/1,2,3;
 4/5=5,16=3,69=1/1;
 5/5=2,38=5/2;
 7//1,2,3,16;
 1/14=-1,18=20,19=15,26=3/3(-5);
 2/9=110/2;
 6/7=2,8=2,9=2,10=2,19=2,28=1/1;
 99/9=1/99;
 -------------------
 Title Card Required
 -------------------
 Symbolic Z-matrix:
 Charge =  0 Multiplicity = 1
 Au                    2.20111   0.40265  -0.03462 
 P                     3.54271   2.25336   0.76978 
 C                     4.75116   2.79209  -0.52229 
 H                     5.30571   3.66069  -0.12933 
 H                     4.14612   3.14848  -1.36283 
 C                     4.4944    2.00318   2.33051 
 H                     5.1089    2.89439   2.50181 
 H                     5.18588   1.16912   2.14932 
 C                     2.42882   3.71146   1.04258 
 H                     1.69688   3.41253   1.80191 
 H                     1.84827   3.81356   0.11475 
 C                     5.7075    1.68673  -0.97575 
 H                     6.31818   1.31238  -0.14707 
 H                     5.16516   0.84016  -1.41093 
 H                     6.38691   2.08259  -1.7361 
 C                     3.11569   5.02776   1.41649 
 H                     2.3508    5.80904   1.55683 
 H                     3.67479   4.94367   2.35852 
 H                     3.79864   5.37073   0.64032 
 C                     3.61099   1.69776   3.55053 
 H                     3.00837   0.80299   3.39258 
 H                     4.23593   1.53234   4.4354 
 H                     2.9374    2.53788   3.78676 
 S                     3.50421  -1.3403    1.20211 
 C                     3.22768  -2.89821   0.25105 
 C                     4.46558  -3.33708  -0.54199 
 H                     2.38371  -2.67143  -0.41911 
 H                     5.32187  -3.53267   0.11985 
 N                    -6.88268   1.65205   2.05513 
 C                    -5.68123   1.8963    1.25184 
 C                    -5.61763   0.94321   0.05202 
 O                    -5.88517  -0.2494    0.20534 
 C                    -4.45934   1.68441   2.18723 
 O                    -3.20418   1.96913   1.58682 
 N                    -5.30138   1.40039  -1.20111 
 C                    -4.90157   2.74035  -1.61935 
 C                    -3.56458   3.21128  -1.02111 
 O                    -3.56891   4.12802  -0.18387 
 N                    -2.40525   2.60024  -1.37447 
 C                    -2.15353   1.48094  -2.26647 
 C                    -2.54158   0.07684  -1.74667 
 O                    -2.87378  -0.78615  -2.55847 
 C                    -0.63433   1.48806  -2.69727 
 S                     0.68102   2.10105  -1.4407 
 N                    -2.40853  -0.13405  -0.41449 
 C                    -2.06257  -1.4609    0.08889 
 C                    -0.57179  -1.52973   0.47854 
 C                    -2.91284  -1.78743   1.33129 
 O                    -2.62404  -1.30934   2.42582 
 N                    -3.96231  -2.63834   1.16624 
 C                    -4.59833  -3.00933  -0.08027 
 C                    -6.04715  -3.35545   0.19362 
 O                    -6.54826  -3.41064   1.29459 
 O                    -6.70301  -3.63595  -0.94386 
 H                    -4.62714   2.30245   3.07973 
 H                    -4.41305   0.63784   2.49774 
 H                    -3.20801   2.91127   1.31461 
 H                    -5.68401   2.94455   0.92645 
 H                    -6.9825    0.64124   2.15801 
 H                    -7.70849   1.96203   1.53495 
 H                    -5.63983   3.48625  -1.32095 
 H                    -4.85087   2.72987  -2.71356 
 H                    -5.22176   0.64899  -1.89251 
 H                    -0.54228   2.25902  -3.4864 
 H                    -0.37129   0.50118  -3.13407 
 H                    -2.71995   1.59514  -3.21083 
 H                    -1.58409   2.92632  -0.86759 
 H                    -0.33671  -2.49582   0.94446 
 H                    -0.37138  -0.75997   1.21699 
 H                    -2.2739   -2.16514  -0.72571 
 H                    -2.27959   0.65234   0.22199 
 H                    -4.12773  -3.89288  -0.54614 
 H                    -4.56988  -2.20554  -0.82005 
 H                    -4.56184  -2.72722   1.97721 
 H                    -7.62657  -3.85509  -0.67997 
 Se                    0.60138  -1.22378  -1.09262 
 C                     2.79835  -4.01808   1.18635 
 O                     3.51545  -4.9087    1.59748 
 O                     1.48154  -3.96758   1.48646 
 H                     1.31058  -4.70424   2.09626 
 H                     4.24786  -4.29629  -1.02944 
 C                     4.87179  -2.36383  -1.62636 
 O                     4.16595  -1.54265  -2.16802 
 O                     6.16688  -2.54071  -1.97231 
 H                     6.33854  -1.92878  -2.7085 
 

 GradGradGradGradGradGradGradGradGradGradGradGradGradGradGradGradGradGrad
 Berny optimization.
 Initialization pass.
                           ----------------------------
                           !    Initial Parameters    !
                           ! (Angstroms and Degrees)  !
 --------------------------                            --------------------------
 ! Name  Definition              Value          Derivative Info.                !
 --------------------------------------------------------------------------------
 ! R1    R(1,2)                  2.4232         estimate D2E/DX2                !
 ! R2    R(1,24)                 2.5031         estimate D2E/DX2                !
 ! R3    R(1,44)                 2.6781         estimate D2E/DX2                !
 ! R4    R(1,76)                 2.5147         estimate D2E/DX2                !
 ! R5    R(2,3)                  1.8493         estimate D2E/DX2                !
 ! R6    R(2,6)                  1.845          estimate D2E/DX2                !
 ! R7    R(2,9)                  1.8551         estimate D2E/DX2                !
 ! R8    R(3,4)                  1.1029         estimate D2E/DX2                !
 ! R9    R(3,5)                  1.0953         estimate D2E/DX2                !
 ! R10   R(3,12)                 1.5304         estimate D2E/DX2                !
 ! R11   R(6,7)                  1.096          estimate D2E/DX2                !
 ! R12   R(6,8)                  1.0985         estimate D2E/DX2                !
 ! R13   R(6,20)                 1.5369         estimate D2E/DX2                !
 ! R14   R(9,10)                 1.0962         estimate D2E/DX2                !
 ! R15   R(9,11)                 1.0992         estimate D2E/DX2                !
 ! R16   R(9,16)                 1.5311         estimate D2E/DX2                !
 ! R17   R(12,13)                1.0953         estimate D2E/DX2                !
 ! R18   R(12,14)                1.0955         estimate D2E/DX2                !
 ! R19   R(12,15)                1.0938         estimate D2E/DX2                !
 ! R20   R(16,17)                1.1023         estimate D2E/DX2                !
 ! R21   R(16,18)                1.0987         estimate D2E/DX2                !
 ! R22   R(16,19)                1.0893         estimate D2E/DX2                !
 ! R23   R(20,21)                1.0903         estimate D2E/DX2                !
 ! R24   R(20,22)                1.0959         estimate D2E/DX2                !
 ! R25   R(20,23)                1.1024         estimate D2E/DX2                !
 ! R26   R(24,25)                1.8461         estimate D2E/DX2                !
 ! R27   R(25,26)                1.5342         estimate D2E/DX2                !
 ! R28   R(25,27)                1.1013         estimate D2E/DX2                !
 ! R29   R(25,77)                1.5209         estimate D2E/DX2                !
 ! R30   R(26,28)                1.0998         estimate D2E/DX2                !
 ! R31   R(26,81)                1.0978         estimate D2E/DX2                !
 ! R32   R(26,82)                1.5126         estimate D2E/DX2                !
 ! R33   R(29,30)                1.4657         estimate D2E/DX2                !
 ! R34   R(29,59)                1.0209         estimate D2E/DX2                !
 ! R35   R(29,60)                1.024          estimate D2E/DX2                !
 ! R36   R(30,31)                1.5336         estimate D2E/DX2                !
 ! R37   R(30,33)                1.5533         estimate D2E/DX2                !
 ! R38   R(30,58)                1.0976         estimate D2E/DX2                !
 ! R39   R(31,32)                1.2318         estimate D2E/DX2                !
 ! R40   R(31,35)                1.3709         estimate D2E/DX2                !
 ! R41   R(33,34)                1.4202         estimate D2E/DX2                !
 ! R42   R(33,55)                1.0985         estimate D2E/DX2                !
 ! R43   R(33,56)                1.0926         estimate D2E/DX2                !
 ! R44   R(34,57)                0.9807         estimate D2E/DX2                !
 ! R45   R(35,36)                1.4595         estimate D2E/DX2                !
 ! R46   R(35,63)                1.0242         estimate D2E/DX2                !
 ! R47   R(36,37)                1.5386         estimate D2E/DX2                !
 ! R48   R(36,61)                1.0911         estimate D2E/DX2                !
 ! R49   R(36,62)                1.0954         estimate D2E/DX2                !
 ! R50   R(37,38)                1.2415         estimate D2E/DX2                !
 ! R51   R(37,39)                1.3573         estimate D2E/DX2                !
 ! R52   R(39,40)                1.4532         estimate D2E/DX2                !
 ! R53   R(39,67)                1.0186         estimate D2E/DX2                !
 ! R54   R(40,41)                1.5467         estimate D2E/DX2                !
 ! R55   R(40,43)                1.5791         estimate D2E/DX2                !
 ! R56   R(40,66)                1.1071         estimate D2E/DX2                !
 ! R57   R(41,42)                1.2305         estimate D2E/DX2                !
 ! R58   R(41,45)                1.3553         estimate D2E/DX2                !
 ! R59   R(43,44)                1.9196         estimate D2E/DX2                !
 ! R60   R(43,64)                1.1071         estimate D2E/DX2                !
 ! R61   R(43,65)                1.1108         estimate D2E/DX2                !
 ! R62   R(45,46)                1.4607         estimate D2E/DX2                !
 ! R63   R(45,71)                1.0199         estimate D2E/DX2                !
 ! R64   R(46,47)                1.5424         estimate D2E/DX2                !
 ! R65   R(46,48)                1.5405         estimate D2E/DX2                !
 ! R66   R(46,70)                1.0974         estimate D2E/DX2                !
 ! R67   R(47,68)                1.098          estimate D2E/DX2                !
 ! R68   R(47,69)                1.0854         estimate D2E/DX2                !
 ! R69   R(47,76)                1.9846         estimate D2E/DX2                !
 ! R70   R(48,49)                1.2288         estimate D2E/DX2                !
 ! R71   R(48,50)                1.3611         estimate D2E/DX2                !
 ! R72   R(50,51)                1.4477         estimate D2E/DX2                !
 ! R73   R(50,74)                1.0124         estimate D2E/DX2                !
 ! R74   R(51,52)                1.5146         estimate D2E/DX2                !
 ! R75   R(51,72)                1.1042         estimate D2E/DX2                !
 ! R76   R(51,73)                1.0928         estimate D2E/DX2                !
 ! R77   R(52,53)                1.2109         estimate D2E/DX2                !
 ! R78   R(52,54)                1.3427         estimate D2E/DX2                !
 ! R79   R(54,75)                0.9852         estimate D2E/DX2                !
 ! R80   R(77,78)                1.2151         estimate D2E/DX2                !
 ! R81   R(77,79)                1.3515         estimate D2E/DX2                !
 ! R82   R(79,80)                0.9715         estimate D2E/DX2                !
 ! R83   R(82,83)                1.2108         estimate D2E/DX2                !
 ! R84   R(82,84)                1.3521         estimate D2E/DX2                !
 ! R85   R(84,85)                0.9726         estimate D2E/DX2                !
 ! A1    A(2,1,24)              94.5637         estimate D2E/DX2                !
 ! A2    A(2,1,44)              90.2399         estimate D2E/DX2                !
 ! A3    A(24,1,76)             95.0885         estimate D2E/DX2                !
 ! A4    A(44,1,76)             80.1073         estimate D2E/DX2                !
 ! A5    A(1,2,3)              110.6302         estimate D2E/DX2                !
 ! A6    A(1,2,6)              117.5687         estimate D2E/DX2                !
 ! A7    A(1,2,9)              108.4622         estimate D2E/DX2                !
 ! A8    A(3,2,6)              107.0645         estimate D2E/DX2                !
 ! A9    A(3,2,9)              105.435          estimate D2E/DX2                !
 ! A10   A(6,2,9)              106.9727         estimate D2E/DX2                !
 ! A11   A(2,3,4)              108.0022         estimate D2E/DX2                !
 ! A12   A(2,3,5)              105.6641         estimate D2E/DX2                !
 ! A13   A(2,3,12)             113.8887         estimate D2E/DX2                !
 ! A14   A(4,3,5)              107.1533         estimate D2E/DX2                !
 ! A15   A(4,3,12)             111.1122         estimate D2E/DX2                !
 ! A16   A(5,3,12)             110.6608         estimate D2E/DX2                !
 ! A17   A(2,6,7)              108.1289         estimate D2E/DX2                !
 ! A18   A(2,6,8)              106.7461         estimate D2E/DX2                !
 ! A19   A(2,6,20)             113.6996         estimate D2E/DX2                !
 ! A20   A(7,6,8)              106.8736         estimate D2E/DX2                !
 ! A21   A(7,6,20)             111.0869         estimate D2E/DX2                !
 ! A22   A(8,6,20)             109.9915         estimate D2E/DX2                !
 ! A23   A(2,9,10)             106.7652         estimate D2E/DX2                !
 ! A24   A(2,9,11)             105.4267         estimate D2E/DX2                !
 ! A25   A(2,9,16)             116.2495         estimate D2E/DX2                !
 ! A26   A(10,9,11)            104.9139         estimate D2E/DX2                !
 ! A27   A(10,9,16)            111.3962         estimate D2E/DX2                !
 ! A28   A(11,9,16)            111.2975         estimate D2E/DX2                !
 ! A29   A(3,12,13)            111.7825         estimate D2E/DX2                !
 ! A30   A(3,12,14)            111.4994         estimate D2E/DX2                !
 ! A31   A(3,12,15)            109.4349         estimate D2E/DX2                !
 ! A32   A(13,12,14)           108.2052         estimate D2E/DX2                !
 ! A33   A(13,12,15)           107.6553         estimate D2E/DX2                !
 ! A34   A(14,12,15)           108.1204         estimate D2E/DX2                !
 ! A35   A(9,16,17)            109.2157         estimate D2E/DX2                !
 ! A36   A(9,16,18)            111.8318         estimate D2E/DX2                !
 ! A37   A(9,16,19)            112.2064         estimate D2E/DX2                !
 ! A38   A(17,16,18)           107.3498         estimate D2E/DX2                !
 ! A39   A(17,16,19)           107.6145         estimate D2E/DX2                !
 ! A40   A(18,16,19)           108.4213         estimate D2E/DX2                !
 ! A41   A(6,20,21)            111.4558         estimate D2E/DX2                !
 ! A42   A(6,20,22)            110.0706         estimate D2E/DX2                !
 ! A43   A(6,20,23)            111.7077         estimate D2E/DX2                !
 ! A44   A(21,20,22)           107.9564         estimate D2E/DX2                !
 ! A45   A(21,20,23)           108.5868         estimate D2E/DX2                !
 ! A46   A(22,20,23)           106.8848         estimate D2E/DX2                !
 ! A47   A(1,24,25)            104.7798         estimate D2E/DX2                !
 ! A48   A(24,25,26)           112.7573         estimate D2E/DX2                !
 ! A49   A(24,25,27)           104.7449         estimate D2E/DX2                !
 ! A50   A(24,25,77)           110.2947         estimate D2E/DX2                !
 ! A51   A(26,25,27)           111.2649         estimate D2E/DX2                !
 ! A52   A(26,25,77)           109.5725         estimate D2E/DX2                !
 ! A53   A(27,25,77)           108.0297         estimate D2E/DX2                !
 ! A54   A(25,26,28)           111.5933         estimate D2E/DX2                !
 ! A55   A(25,26,81)           108.6295         estimate D2E/DX2                !
 ! A56   A(25,26,82)           113.7766         estimate D2E/DX2                !
 ! A57   A(28,26,81)           105.4403         estimate D2E/DX2                !
 ! A58   A(28,26,82)           109.6787         estimate D2E/DX2                !
 ! A59   A(81,26,82)           107.2865         estimate D2E/DX2                !
 ! A60   A(30,29,59)           107.4788         estimate D2E/DX2                !
 ! A61   A(30,29,60)           109.4012         estimate D2E/DX2                !
 ! A62   A(59,29,60)           105.786          estimate D2E/DX2                !
 ! A63   A(29,30,31)           111.0507         estimate D2E/DX2                !
 ! A64   A(29,30,33)           106.9791         estimate D2E/DX2                !
 ! A65   A(29,30,58)           108.6352         estimate D2E/DX2                !
 ! A66   A(31,30,33)           110.7152         estimate D2E/DX2                !
 ! A67   A(31,30,58)           111.2045         estimate D2E/DX2                !
 ! A68   A(33,30,58)           108.1066         estimate D2E/DX2                !
 ! A69   A(30,31,32)           119.6891         estimate D2E/DX2                !
 ! A70   A(30,31,35)           121.1615         estimate D2E/DX2                !
 ! A71   A(32,31,35)           119.1272         estimate D2E/DX2                !
 ! A72   A(30,33,34)           114.4108         estimate D2E/DX2                !
 ! A73   A(30,33,55)           106.9988         estimate D2E/DX2                !
 ! A74   A(30,33,56)           109.5793         estimate D2E/DX2                !
 ! A75   A(34,33,55)           111.4502         estimate D2E/DX2                !
 ! A76   A(34,33,56)           105.945          estimate D2E/DX2                !
 ! A77   A(55,33,56)           108.3303         estimate D2E/DX2                !
 ! A78   A(33,34,57)           107.8476         estimate D2E/DX2                !
 ! A79   A(31,35,36)           129.1461         estimate D2E/DX2                !
 ! A80   A(31,35,63)           112.9759         estimate D2E/DX2                !
 ! A81   A(36,35,63)           117.3097         estimate D2E/DX2                !
 ! A82   A(35,36,37)           114.0555         estimate D2E/DX2                !
 ! A83   A(35,36,61)           111.3401         estimate D2E/DX2                !
 ! A84   A(35,36,62)           106.8656         estimate D2E/DX2                !
 ! A85   A(37,36,61)           105.8071         estimate D2E/DX2                !
 ! A86   A(37,36,62)           110.5548         estimate D2E/DX2                !
 ! A87   A(61,36,62)           108.1221         estimate D2E/DX2                !
 ! A88   A(36,37,38)           119.0244         estimate D2E/DX2                !
 ! A89   A(36,37,39)           120.213          estimate D2E/DX2                !
 ! A90   A(38,37,39)           120.7276         estimate D2E/DX2                !
 ! A91   A(37,39,40)           130.8805         estimate D2E/DX2                !
 ! A92   A(37,39,67)           114.5138         estimate D2E/DX2                !
 ! A93   A(40,39,67)           114.354          estimate D2E/DX2                !
 ! A94   A(39,40,41)           116.7097         estimate D2E/DX2                !
 ! A95   A(39,40,43)           109.3066         estimate D2E/DX2                !
 ! A96   A(39,40,66)           110.8248         estimate D2E/DX2                !
 ! A97   A(41,40,43)           109.7027         estimate D2E/DX2                !
 ! A98   A(41,40,66)           104.593          estimate D2E/DX2                !
 ! A99   A(43,40,66)           105.0127         estimate D2E/DX2                !
 ! A100  A(40,41,42)           118.861          estimate D2E/DX2                !
 ! A101  A(40,41,45)           116.5486         estimate D2E/DX2                !
 ! A102  A(42,41,45)           124.4615         estimate D2E/DX2                !
 ! A103  A(40,43,44)           118.8212         estimate D2E/DX2                !
 ! A104  A(40,43,64)           106.1171         estimate D2E/DX2                !
 ! A105  A(40,43,65)           109.3347         estimate D2E/DX2                !
 ! A106  A(44,43,64)           100.7919         estimate D2E/DX2                !
 ! A107  A(44,43,65)           112.2623         estimate D2E/DX2                !
 ! A108  A(64,43,65)           108.5857         estimate D2E/DX2                !
 ! A109  A(1,44,43)            122.0121         estimate D2E/DX2                !
 ! A110  A(41,45,46)           120.2203         estimate D2E/DX2                !
 ! A111  A(41,45,71)           120.3887         estimate D2E/DX2                !
 ! A112  A(46,45,71)           117.0906         estimate D2E/DX2                !
 ! A113  A(45,46,47)           110.8866         estimate D2E/DX2                !
 ! A114  A(45,46,48)           109.8615         estimate D2E/DX2                !
 ! A115  A(45,46,70)           106.3514         estimate D2E/DX2                !
 ! A116  A(47,46,48)           108.6793         estimate D2E/DX2                !
 ! A117  A(47,46,70)           110.1836         estimate D2E/DX2                !
 ! A118  A(48,46,70)           110.8765         estimate D2E/DX2                !
 ! A119  A(46,47,68)           110.6946         estimate D2E/DX2                !
 ! A120  A(46,47,69)           108.5843         estimate D2E/DX2                !
 ! A121  A(46,47,76)           111.3755         estimate D2E/DX2                !
 ! A122  A(68,47,69)           107.2039         estimate D2E/DX2                !
 ! A123  A(68,47,76)           110.1827         estimate D2E/DX2                !
 ! A124  A(69,47,76)           108.6722         estimate D2E/DX2                !
 ! A125  A(46,48,49)           120.4093         estimate D2E/DX2                !
 ! A126  A(46,48,50)           117.4055         estimate D2E/DX2                !
 ! A127  A(49,48,50)           122.1703         estimate D2E/DX2                !
 ! A128  A(48,50,51)           127.1085         estimate D2E/DX2                !
 ! A129  A(48,50,74)           114.478          estimate D2E/DX2                !
 ! A130  A(51,50,74)           114.0179         estimate D2E/DX2                !
 ! A131  A(50,51,52)           108.851          estimate D2E/DX2                !
 ! A132  A(50,51,72)           112.4013         estimate D2E/DX2                !
 ! A133  A(50,51,73)           112.5169         estimate D2E/DX2                !
 ! A134  A(52,51,72)           107.5259         estimate D2E/DX2                !
 ! A135  A(52,51,73)           108.3864         estimate D2E/DX2                !
 ! A136  A(72,51,73)           106.9694         estimate D2E/DX2                !
 ! A137  A(51,52,53)           124.7994         estimate D2E/DX2                !
 ! A138  A(51,52,54)           111.2118         estimate D2E/DX2                !
 ! A139  A(53,52,54)           123.9597         estimate D2E/DX2                !
 ! A140  A(52,54,75)           106.1089         estimate D2E/DX2                !
 ! A141  A(1,76,47)             98.2029         estimate D2E/DX2                !
 ! A142  A(25,77,78)           125.5325         estimate D2E/DX2                !
 ! A143  A(25,77,79)           112.5865         estimate D2E/DX2                !
 ! A144  A(78,77,79)           121.82           estimate D2E/DX2                !
 ! A145  A(77,79,80)           106.4107         estimate D2E/DX2                !
 ! A146  A(26,82,83)           126.908          estimate D2E/DX2                !
 ! A147  A(26,82,84)           110.8832         estimate D2E/DX2                !
 ! A148  A(83,82,84)           122.1848         estimate D2E/DX2                !
 ! A149  A(82,84,85)           106.2853         estimate D2E/DX2                !
 ! A150  L(2,1,76,44,-1)       170.3472         estimate D2E/DX2                !
 ! A151  L(24,1,44,76,-1)      175.1957         estimate D2E/DX2                !
 ! A152  L(2,1,76,44,-2)       179.579          estimate D2E/DX2                !
 ! A153  L(24,1,44,76,-2)      180.0739         estimate D2E/DX2                !
 ! D1    D(24,1,2,3)           101.1135         estimate D2E/DX2                !
 ! D2    D(24,1,2,6)           -22.2723         estimate D2E/DX2                !
 ! D3    D(24,1,2,9)          -143.7039         estimate D2E/DX2                !
 ! D4    D(44,1,2,3)           -78.7773         estimate D2E/DX2                !
 ! D5    D(44,1,2,6)           157.8369         estimate D2E/DX2                !
 ! D6    D(44,1,2,9)            36.4053         estimate D2E/DX2                !
 ! D7    D(3,2,76,47)         -178.3494         estimate D2E/DX2                !
 ! D8    D(6,2,76,47)           55.5534         estimate D2E/DX2                !
 ! D9    D(9,2,76,47)          -65.8108         estimate D2E/DX2                !
 ! D10   D(2,1,24,25)         -155.6573         estimate D2E/DX2                !
 ! D11   D(76,1,24,25)          23.908          estimate D2E/DX2                !
 ! D12   D(25,24,44,43)         15.6484         estimate D2E/DX2                !
 ! D13   D(2,1,44,43)          171.3696         estimate D2E/DX2                !
 ! D14   D(76,1,44,43)          -8.2095         estimate D2E/DX2                !
 ! D15   D(24,1,76,47)          78.0928         estimate D2E/DX2                !
 ! D16   D(44,1,76,47)        -101.9811         estimate D2E/DX2                !
 ! D17   D(1,2,3,4)            177.5404         estimate D2E/DX2                !
 ! D18   D(1,2,3,5)             63.1346         estimate D2E/DX2                !
 ! D19   D(1,2,3,12)           -58.5317         estimate D2E/DX2                !
 ! D20   D(6,2,3,4)            -53.198          estimate D2E/DX2                !
 ! D21   D(6,2,3,5)           -167.6037         estimate D2E/DX2                !
 ! D22   D(6,2,3,12)            70.7299         estimate D2E/DX2                !
 ! D23   D(9,2,3,4)             60.4764         estimate D2E/DX2                !
 ! D24   D(9,2,3,5)            -53.9294         estimate D2E/DX2                !
 ! D25   D(9,2,3,12)          -175.5958         estimate D2E/DX2                !
 ! D26   D(1,2,6,7)            175.0588         estimate D2E/DX2                !
 ! D27   D(1,2,6,8)             60.3842         estimate D2E/DX2                !
 ! D28   D(1,2,6,20)           -61.0812         estimate D2E/DX2                !
 ! D29   D(3,2,6,7)             49.8869         estimate D2E/DX2                !
 ! D30   D(3,2,6,8)            -64.7877         estimate D2E/DX2                !
 ! D31   D(3,2,6,20)           173.7468         estimate D2E/DX2                !
 ! D32   D(9,2,6,7)            -62.7424         estimate D2E/DX2                !
 ! D33   D(9,2,6,8)           -177.417          estimate D2E/DX2                !
 ! D34   D(9,2,6,20)            61.1175         estimate D2E/DX2                !
 ! D35   D(1,2,9,10)            61.0702         estimate D2E/DX2                !
 ! D36   D(1,2,9,11)           -50.1509         estimate D2E/DX2                !
 ! D37   D(1,2,9,16)          -173.9435         estimate D2E/DX2                !
 ! D38   D(3,2,9,10)           179.5946         estimate D2E/DX2                !
 ! D39   D(3,2,9,11)            68.3734         estimate D2E/DX2                !
 ! D40   D(3,2,9,16)           -55.4192         estimate D2E/DX2                !
 ! D41   D(6,2,9,10)           -66.667          estimate D2E/DX2                !
 ! D42   D(6,2,9,11)          -177.8882         estimate D2E/DX2                !
 ! D43   D(6,2,9,16)            58.3192         estimate D2E/DX2                !
 ! D44   D(2,3,12,13)          -60.8095         estimate D2E/DX2                !
 ! D45   D(2,3,12,14)           60.4565         estimate D2E/DX2                !
 ! D46   D(2,3,12,15)         -179.9757         estimate D2E/DX2                !
 ! D47   D(4,3,12,13)           61.422          estimate D2E/DX2                !
 ! D48   D(4,3,12,14)         -177.312          estimate D2E/DX2                !
 ! D49   D(4,3,12,15)          -57.7442         estimate D2E/DX2                !
 ! D50   D(5,3,12,13)         -179.6651         estimate D2E/DX2                !
 ! D51   D(5,3,12,14)          -58.3991         estimate D2E/DX2                !
 ! D52   D(5,3,12,15)           61.1687         estimate D2E/DX2                !
 ! D53   D(2,6,20,21)           58.6495         estimate D2E/DX2                !
 ! D54   D(2,6,20,22)          178.4026         estimate D2E/DX2                !
 ! D55   D(2,6,20,23)          -63.0239         estimate D2E/DX2                !
 ! D56   D(7,6,20,21)         -179.1103         estimate D2E/DX2                !
 ! D57   D(7,6,20,22)          -59.3573         estimate D2E/DX2                !
 ! D58   D(7,6,20,23)           59.2162         estimate D2E/DX2                !
 ! D59   D(8,6,20,21)          -60.99           estimate D2E/DX2                !
 ! D60   D(8,6,20,22)           58.7631         estimate D2E/DX2                !
 ! D61   D(8,6,20,23)          177.3366         estimate D2E/DX2                !
 ! D62   D(2,9,16,17)         -179.6354         estimate D2E/DX2                !
 ! D63   D(2,9,16,18)          -60.9611         estimate D2E/DX2                !
 ! D64   D(2,9,16,19)           61.1276         estimate D2E/DX2                !
 ! D65   D(10,9,16,17)         -57.044          estimate D2E/DX2                !
 ! D66   D(10,9,16,18)          61.6303         estimate D2E/DX2                !
 ! D67   D(10,9,16,19)        -176.281          estimate D2E/DX2                !
 ! D68   D(11,9,16,17)          59.6627         estimate D2E/DX2                !
 ! D69   D(11,9,16,18)         178.337          estimate D2E/DX2                !
 ! D70   D(11,9,16,19)         -59.5744         estimate D2E/DX2                !
 ! D71   D(1,24,25,26)         107.3004         estimate D2E/DX2                !
 ! D72   D(1,24,25,27)         -13.837          estimate D2E/DX2                !
 ! D73   D(1,24,25,77)        -129.8489         estimate D2E/DX2                !
 ! D74   D(24,25,26,28)         60.7523         estimate D2E/DX2                !
 ! D75   D(24,25,26,81)        176.575          estimate D2E/DX2                !
 ! D76   D(24,25,26,82)        -64.0066         estimate D2E/DX2                !
 ! D77   D(27,25,26,28)        178.102          estimate D2E/DX2                !
 ! D78   D(27,25,26,81)        -66.0752         estimate D2E/DX2                !
 ! D79   D(27,25,26,82)         53.3432         estimate D2E/DX2                !
 ! D80   D(77,25,26,28)        -62.5009         estimate D2E/DX2                !
 ! D81   D(77,25,26,81)         53.3218         estimate D2E/DX2                !
 ! D82   D(77,25,26,82)        172.7402         estimate D2E/DX2                !
 ! D83   D(24,25,77,78)       -101.6598         estimate D2E/DX2                !
 ! D84   D(24,25,77,79)         81.152          estimate D2E/DX2                !
 ! D85   D(26,25,77,78)         23.035          estimate D2E/DX2                !
 ! D86   D(26,25,77,79)       -154.1532         estimate D2E/DX2                !
 ! D87   D(27,25,77,78)        144.4025         estimate D2E/DX2                !
 ! D88   D(27,25,77,79)        -32.7857         estimate D2E/DX2                !
 ! D89   D(25,26,82,83)        -22.6589         estimate D2E/DX2                !
 ! D90   D(25,26,82,84)        159.1026         estimate D2E/DX2                !
 ! D91   D(28,26,82,83)       -148.4374         estimate D2E/DX2                !
 ! D92   D(28,26,82,84)         33.3242         estimate D2E/DX2                !
 ! D93   D(81,26,82,83)         97.5196         estimate D2E/DX2                !
 ! D94   D(81,26,82,84)        -80.7188         estimate D2E/DX2                !
 ! D95   D(59,29,30,31)         44.0032         estimate D2E/DX2                !
 ! D96   D(59,29,30,33)        -76.9146         estimate D2E/DX2                !
 ! D97   D(59,29,30,58)        166.6048         estimate D2E/DX2                !
 ! D98   D(60,29,30,31)        -70.4081         estimate D2E/DX2                !
 ! D99   D(60,29,30,33)        168.6741         estimate D2E/DX2                !
 ! D100  D(60,29,30,58)         52.1936         estimate D2E/DX2                !
 ! D101  D(29,30,31,32)        -43.7685         estimate D2E/DX2                !
 ! D102  D(29,30,31,35)        134.5017         estimate D2E/DX2                !
 ! D103  D(33,30,31,32)         74.9224         estimate D2E/DX2                !
 ! D104  D(33,30,31,35)       -106.8074         estimate D2E/DX2                !
 ! D105  D(58,30,31,32)       -164.8714         estimate D2E/DX2                !
 ! D106  D(58,30,31,35)         13.3988         estimate D2E/DX2                !
 ! D107  D(29,30,33,34)       -176.0443         estimate D2E/DX2                !
 ! D108  D(29,30,33,55)        -52.0794         estimate D2E/DX2                !
 ! D109  D(29,30,33,56)         65.1644         estimate D2E/DX2                !
 ! D110  D(31,30,33,34)         62.8251         estimate D2E/DX2                !
 ! D111  D(31,30,33,55)       -173.21           estimate D2E/DX2                !
 ! D112  D(31,30,33,56)        -55.9663         estimate D2E/DX2                !
 ! D113  D(58,30,33,34)        -59.2141         estimate D2E/DX2                !
 ! D114  D(58,30,33,55)         64.7508         estimate D2E/DX2                !
 ! D115  D(58,30,33,56)       -178.0054         estimate D2E/DX2                !
 ! D116  D(30,31,35,36)          4.4195         estimate D2E/DX2                !
 ! D117  D(30,31,35,63)        175.4192         estimate D2E/DX2                !
 ! D118  D(32,31,35,36)       -177.3008         estimate D2E/DX2                !
 ! D119  D(32,31,35,63)         -6.3011         estimate D2E/DX2                !
 ! D120  D(30,33,34,57)         60.4158         estimate D2E/DX2                !
 ! D121  D(55,33,34,57)        -61.1357         estimate D2E/DX2                !
 ! D122  D(56,33,34,57)       -178.7602         estimate D2E/DX2                !
 ! D123  D(31,35,36,37)         64.0215         estimate D2E/DX2                !
 ! D124  D(31,35,36,61)        -55.6263         estimate D2E/DX2                !
 ! D125  D(31,35,36,62)       -173.4915         estimate D2E/DX2                !
 ! D126  D(63,35,36,37)       -106.6499         estimate D2E/DX2                !
 ! D127  D(63,35,36,61)        133.7023         estimate D2E/DX2                !
 ! D128  D(63,35,36,62)         15.8371         estimate D2E/DX2                !
 ! D129  D(35,36,37,38)       -110.9829         estimate D2E/DX2                !
 ! D130  D(35,36,37,39)         66.8804         estimate D2E/DX2                !
 ! D131  D(61,36,37,38)         11.7383         estimate D2E/DX2                !
 ! D132  D(61,36,37,39)       -170.3984         estimate D2E/DX2                !
 ! D133  D(62,36,37,38)        128.5722         estimate D2E/DX2                !
 ! D134  D(62,36,37,39)        -53.5645         estimate D2E/DX2                !
 ! D135  D(36,37,39,40)         -1.1341         estimate D2E/DX2                !
 ! D136  D(36,37,39,67)       -174.9541         estimate D2E/DX2                !
 ! D137  D(38,37,39,40)        176.6923         estimate D2E/DX2                !
 ! D138  D(38,37,39,67)          2.8723         estimate D2E/DX2                !
 ! D139  D(37,39,40,41)        -73.9021         estimate D2E/DX2                !
 ! D140  D(37,39,40,43)        160.9163         estimate D2E/DX2                !
 ! D141  D(37,39,40,66)         45.6452         estimate D2E/DX2                !
 ! D142  D(67,39,40,41)         99.9258         estimate D2E/DX2                !
 ! D143  D(67,39,40,43)        -25.2558         estimate D2E/DX2                !
 ! D144  D(67,39,40,66)       -140.5269         estimate D2E/DX2                !
 ! D145  D(39,40,41,42)        150.5741         estimate D2E/DX2                !
 ! D146  D(39,40,41,45)        -33.3674         estimate D2E/DX2                !
 ! D147  D(43,40,41,42)        -84.4441         estimate D2E/DX2                !
 ! D148  D(43,40,41,45)         91.6144         estimate D2E/DX2                !
 ! D149  D(66,40,41,42)         27.7376         estimate D2E/DX2                !
 ! D150  D(66,40,41,45)       -156.2038         estimate D2E/DX2                !
 ! D151  D(39,40,43,44)         33.632          estimate D2E/DX2                !
 ! D152  D(39,40,43,64)        -78.7918         estimate D2E/DX2                !
 ! D153  D(39,40,43,65)        164.2731         estimate D2E/DX2                !
 ! D154  D(41,40,43,44)        -95.5158         estimate D2E/DX2                !
 ! D155  D(41,40,43,64)        152.0604         estimate D2E/DX2                !
 ! D156  D(41,40,43,65)         35.1254         estimate D2E/DX2                !
 ! D157  D(66,40,43,44)        152.5763         estimate D2E/DX2                !
 ! D158  D(66,40,43,64)         40.1525         estimate D2E/DX2                !
 ! D159  D(66,40,43,65)        -76.7825         estimate D2E/DX2                !
 ! D160  D(40,41,45,46)       -148.0742         estimate D2E/DX2                !
 ! D161  D(40,41,45,71)         14.2051         estimate D2E/DX2                !
 ! D162  D(42,41,45,46)         27.7387         estimate D2E/DX2                !
 ! D163  D(42,41,45,71)       -169.982          estimate D2E/DX2                !
 ! D164  D(40,43,44,1)         101.2096         estimate D2E/DX2                !
 ! D165  D(64,43,44,1)        -143.4854         estimate D2E/DX2                !
 ! D166  D(65,43,44,1)         -28.1051         estimate D2E/DX2                !
 ! D167  D(41,45,46,47)        102.2066         estimate D2E/DX2                !
 ! D168  D(41,45,46,48)       -137.6395         estimate D2E/DX2                !
 ! D169  D(41,45,46,70)        -17.5834         estimate D2E/DX2                !
 ! D170  D(71,45,46,47)        -60.6409         estimate D2E/DX2                !
 ! D171  D(71,45,46,48)         59.513          estimate D2E/DX2                !
 ! D172  D(71,45,46,70)        179.5691         estimate D2E/DX2                !
 ! D173  D(45,46,47,68)        174.6293         estimate D2E/DX2                !
 ! D174  D(45,46,47,69)         57.2046         estimate D2E/DX2                !
 ! D175  D(45,46,47,76)        -62.4203         estimate D2E/DX2                !
 ! D176  D(48,46,47,68)         53.7739         estimate D2E/DX2                !
 ! D177  D(48,46,47,69)        -63.6508         estimate D2E/DX2                !
 ! D178  D(48,46,47,76)        176.7243         estimate D2E/DX2                !
 ! D179  D(70,46,47,68)        -67.8984         estimate D2E/DX2                !
 ! D180  D(70,46,47,69)        174.6769         estimate D2E/DX2                !
 ! D181  D(70,46,47,76)         55.052          estimate D2E/DX2                !
 ! D182  D(45,46,48,49)        -78.4244         estimate D2E/DX2                !
 ! D183  D(45,46,48,50)        102.9477         estimate D2E/DX2                !
 ! D184  D(47,46,48,49)         43.0604         estimate D2E/DX2                !
 ! D185  D(47,46,48,50)       -135.5675         estimate D2E/DX2                !
 ! D186  D(70,46,48,49)        164.3085         estimate D2E/DX2                !
 ! D187  D(70,46,48,50)        -14.3193         estimate D2E/DX2                !
 ! D188  D(46,47,76,1)         134.002          estimate D2E/DX2                !
 ! D189  D(68,47,76,1)        -102.7549         estimate D2E/DX2                !
 ! D190  D(69,47,76,1)          14.4293         estimate D2E/DX2                !
 ! D191  D(46,48,50,51)        -17.4803         estimate D2E/DX2                !
 ! D192  D(46,48,50,74)       -172.33           estimate D2E/DX2                !
 ! D193  D(49,48,50,51)        163.9178         estimate D2E/DX2                !
 ! D194  D(49,48,50,74)          9.0681         estimate D2E/DX2                !
 ! D195  D(48,50,51,52)       -151.5477         estimate D2E/DX2                !
 ! D196  D(48,50,51,72)         89.4457         estimate D2E/DX2                !
 ! D197  D(48,50,51,73)        -31.3924         estimate D2E/DX2                !
 ! D198  D(74,50,51,52)          3.3991         estimate D2E/DX2                !
 ! D199  D(74,50,51,72)       -115.6074         estimate D2E/DX2                !
 ! D200  D(74,50,51,73)        123.5544         estimate D2E/DX2                !
 ! D201  D(50,51,52,53)         -5.3271         estimate D2E/DX2                !
 ! D202  D(50,51,52,54)        176.5752         estimate D2E/DX2                !
 ! D203  D(72,51,52,53)        116.686          estimate D2E/DX2                !
 ! D204  D(72,51,52,54)        -61.4117         estimate D2E/DX2                !
 ! D205  D(73,51,52,53)       -128.0049         estimate D2E/DX2                !
 ! D206  D(73,51,52,54)         53.8974         estimate D2E/DX2                !
 ! D207  D(51,52,54,75)        179.5758         estimate D2E/DX2                !
 ! D208  D(53,52,54,75)          1.4592         estimate D2E/DX2                !
 ! D209  D(25,77,79,80)       -178.8795         estimate D2E/DX2                !
 ! D210  D(78,77,79,80)          3.8133         estimate D2E/DX2                !
 ! D211  D(26,82,84,85)        176.248          estimate D2E/DX2                !
 ! D212  D(83,82,84,85)         -2.0878         estimate D2E/DX2                !
 --------------------------------------------------------------------------------
 Trust Radius=3.00D-01 FncErr=1.00D-07 GrdErr=1.00D-06
 Number of steps in this run=    460 maximum allowed number of steps=    510.
 GradGradGradGradGradGradGradGradGradGradGradGradGradGradGradGradGradGrad

 Stoichiometry    C23H41AuN5O11PS2Se
 Framework group  C1[X(C23H41AuN5O11PS2Se)]
 Deg. of freedom   249
 Full point group                 C1      NOp   1
 Largest Abelian subgroup         C1      NOp   1
 Largest concise Abelian subgroup C1      NOp   1
                         Standard orientation:                         
 ---------------------------------------------------------------------
 Center     Atomic      Atomic             Coordinates (Angstroms)
 Number     Number       Type             X           Y           Z
 ---------------------------------------------------------------------
      1         79           0       -2.197434   -0.392473   -0.023251
      2         15           0       -3.541329   -2.235363    0.795157
      3          6           0       -4.760042   -2.773096   -0.487653
      4          1           0       -5.315576   -3.638280   -0.088595
      5          1           0       -4.161743   -3.134424   -1.330907
      6          6           0       -4.482159   -1.976684    2.361075
      7          1           0       -5.099125   -2.864905    2.538933
      8          1           0       -5.171419   -1.140406    2.181724
      9          6           0       -2.431575   -3.697101    1.065340
     10          1           0       -1.693678   -3.398842    1.819146
     11          1           0       -1.857301   -3.804304    0.134191
     12          6           0       -5.714794   -1.665269   -0.938419
     13          1           0       -6.318738   -1.285989   -0.107048
     14          1           0       -5.171833   -0.822184   -1.379559
     15          1           0       -6.400565   -2.060664   -1.693288
     16          6           0       -3.121333   -5.009508    1.447537
     17          1           0       -2.358706   -5.793430    1.585414
     18          1           0       -3.674149   -4.920348    2.392801
     19          1           0       -3.810530   -5.352047    0.676713
     20          6           0       -3.589857   -1.671173    3.574588
     21          1           0       -2.984675   -0.779303    3.410154
     22          1           0       -4.208540   -1.500597    4.462870
     23          1           0       -2.918152   -2.513280    3.809114
     24         16           0       -3.485742    1.359392    1.216381
     25          6           0       -3.208984    2.913326    0.258908
     26          6           0       -4.450091    3.354794   -0.527654
     27          1           0       -2.370173    2.681158   -0.415864
     28          1           0       -5.301403    3.555803    0.138968
     29          7           0        6.894273   -1.672087    2.013072
     30          6           0        5.686818   -1.913908    1.218091
     31          6           0        5.619471   -0.964171    0.015821
     32          8           0        5.892737    0.227813    0.163857
     33          6           0        4.471706   -1.694314    2.160512
     34          8           0        3.211655   -1.975782    1.568869
     35          7           0        5.293495   -1.423825   -1.233900
     36          6           0        4.885703   -2.763412   -1.645571
     37          6           0        3.550640   -3.227172   -1.037518
     38          8           0        3.556590   -4.141413   -0.197553
     39          7           0        2.391559   -2.612546   -1.385415
     40          6           0        2.138704   -1.494920   -2.279189
     41          6           0        2.535626   -0.090831   -1.766078
     42          8           0        2.866151    0.768377   -2.582553
     43          6           0        0.616801   -1.497222   -2.700403
     44         16           0       -0.693044   -2.101160   -1.433739
     45          7           0        2.411822    0.124569   -0.433734
     46          6           0        2.074346    1.454298    0.067807
     47          6           0        0.586344    1.530282    0.466620
     48          6           0        2.933728    1.781130    1.303838
     49          8           0        2.649926    1.307487    2.401602
     50          7           0        3.985531    2.627322    1.129628
     51          6           0        4.615161    2.992019   -0.121977
     52          6           0        6.067053    3.333140    0.141749
     53          8           0        6.575309    3.389613    1.239373
     54          8           0        6.716847    3.607595   -1.000683
     55          1           0        4.642655   -2.310354    3.053798
     56          1           0        4.431554   -0.646638    2.468139
     57          1           0        3.210006   -2.918742    1.299489
     58          1           0        5.683354   -2.963128    0.895859
     59          1           0        6.998779   -0.661383    2.112265
     60          1           0        7.715547   -1.986938    1.488639
     61          1           0        5.622847   -3.511373   -1.349573
     62          1           0        4.828151   -2.756000   -2.739469
     63          1           0        5.212531   -0.674184   -1.927055
     64          1           0        0.516690   -2.270167   -3.486602
     65          1           0        0.354960   -0.510602   -3.138515
     66          1           0        2.698693   -1.614218   -3.226741
     67          1           0        1.572315   -2.933806   -0.872398
     68          1           0        0.358071    2.498699    0.931093
     69          1           0        0.387519    0.763548    1.208629
     70          1           0        2.283351    2.155246   -0.750226
     71          1           0        2.283752   -0.659381    0.205912
     72          1           0        4.145168    3.876058   -0.587544
     73          1           0        4.578836    2.186145   -0.859131
     74          1           0        4.590517    2.716224    1.936530
     75          1           0        7.642924    3.823817   -0.743270
     76         34           0       -0.597919    1.224345   -1.096204
     77          6           0       -2.769294    4.034259    1.188098
     78          8           0       -3.480225    4.928982    1.601044
     79          8           0       -1.450835    3.979372    1.480075
     80          1           0       -1.273089    4.717157    2.086563
     81          1           0       -4.231619    4.311659   -1.019351
     82          6           0       -4.867021    2.379936   -1.606505
     83          8           0       -4.167894    1.554317   -2.150109
     84          8           0       -6.163549    2.560983   -1.944832
     85          1           0       -6.342293    1.947551   -2.678078
 ---------------------------------------------------------------------
 Rotational constants (GHZ):      0.0816079      0.0366746      0.0303740
 General basis read from cards:  (5D, 7F)
 ======================================================================================================
                                       Pseudopotential Parameters
 ======================================================================================================
  Center     Atomic      Valence      Angular      Power
  Number     Number     Electrons     Momentum     of R      Exponent        Coefficient   SO-Coeffient
 ======================================================================================================
    1         79           19
                                      G and up 
                                                     1      622.6287956      -60.00000000    0.00000000
                                                     2      136.2843607     -555.52923120    0.00000000
                                                     2       33.1549781     -168.00197850    0.00000000
                                                     2        9.9894895      -63.03998750    0.00000000
                                                     2        3.0481312       -4.25166810    0.00000000
                                      S - G
                                                     0      194.7374304        3.00000000    0.00000000
                                                     1      351.5327447       38.60208800    0.00000000
                                                     2      122.3270402      864.83707270    0.00000000
                                                     2       32.0914617      374.99355200    0.00000000
                                                     2        5.2451812      289.79101000    0.00000000
                                                     2        4.4916223     -152.45327730    0.00000000
                                      P - G
                                                     0      420.6158801        2.00000000    0.00000000
                                                     1      109.4417815       73.88856250    0.00000000
                                                     2       34.1714280      326.67298720    0.00000000
                                                     2        5.9879750      126.58145910    0.00000000
                                      D - G
                                                     0      219.2666158        3.00000000    0.00000000
                                                     1      122.7297786       55.67931490    0.00000000
                                                     2       63.1063369      449.19873350    0.00000000
                                                     2       18.3684520      215.02690910    0.00000000
                                                     2        4.4972844       64.08409950    0.00000000
                                      F - G
                                                     0      108.5506037        4.00000000    0.00000000
                                                     1       56.4795527       51.80653350    0.00000000
                                                     2       29.2069159      231.21831130    0.00000000
                                                     2        9.5440543      119.00473860    0.00000000
                                                     2        2.8965118       15.34241880    0.00000000
    2         15
                                   No pseudopotential on this center.
    3          6
                                   No pseudopotential on this center.
    4          1
                                   No pseudopotential on this center.
    5          1
                                   No pseudopotential on this center.
    6          6
                                   No pseudopotential on this center.
    7          1
                                   No pseudopotential on this center.
    8          1
                                   No pseudopotential on this center.
    9          6
                                   No pseudopotential on this center.
   10          1
                                   No pseudopotential on this center.
   11          1
                                   No pseudopotential on this center.
   12          6
                                   No pseudopotential on this center.
   13          1
                                   No pseudopotential on this center.
   14          1
                                   No pseudopotential on this center.
   15          1
                                   No pseudopotential on this center.
   16          6
                                   No pseudopotential on this center.
   17          1
                                   No pseudopotential on this center.
   18          1
                                   No pseudopotential on this center.
   19          1
                                   No pseudopotential on this center.
   20          6
                                   No pseudopotential on this center.
   21          1
                                   No pseudopotential on this center.
   22          1
                                   No pseudopotential on this center.
   23          1
                                   No pseudopotential on this center.
   24         16
                                   No pseudopotential on this center.
   25          6
                                   No pseudopotential on this center.
   26          6
                                   No pseudopotential on this center.
   27          1
                                   No pseudopotential on this center.
   28          1
                                   No pseudopotential on this center.
   29          7
                                   No pseudopotential on this center.
   30          6
                                   No pseudopotential on this center.
   31          6
                                   No pseudopotential on this center.
   32          8
                                   No pseudopotential on this center.
   33          6
                                   No pseudopotential on this center.
   34          8
                                   No pseudopotential on this center.
   35          7
                                   No pseudopotential on this center.
   36          6
                                   No pseudopotential on this center.
   37          6
                                   No pseudopotential on this center.
   38          8
                                   No pseudopotential on this center.
   39          7
                                   No pseudopotential on this center.
   40          6
                                   No pseudopotential on this center.
   41          6
                                   No pseudopotential on this center.
   42          8
                                   No pseudopotential on this center.
   43          6
                                   No pseudopotential on this center.
   44         16
                                   No pseudopotential on this center.
   45          7
                                   No pseudopotential on this center.
   46          6
                                   No pseudopotential on this center.
   47          6
                                   No pseudopotential on this center.
   48          6
                                   No pseudopotential on this center.
   49          8
                                   No pseudopotential on this center.
   50          7
                                   No pseudopotential on this center.
   51          6
                                   No pseudopotential on this center.
   52          6
                                   No pseudopotential on this center.
   53          8
                                   No pseudopotential on this center.
   54          8
                                   No pseudopotential on this center.
   55          1
                                   No pseudopotential on this center.
   56          1
                                   No pseudopotential on this center.
   57          1
                                   No pseudopotential on this center.
   58          1
                                   No pseudopotential on this center.
   59          1
                                   No pseudopotential on this center.
   60          1
                                   No pseudopotential on this center.
   61          1
                                   No pseudopotential on this center.
   62          1
                                   No pseudopotential on this center.
   63          1
                                   No pseudopotential on this center.
   64          1
                                   No pseudopotential on this center.
   65          1
                                   No pseudopotential on this center.
   66          1
                                   No pseudopotential on this center.
   67          1
                                   No pseudopotential on this center.
   68          1
                                   No pseudopotential on this center.
   69          1
                                   No pseudopotential on this center.
   70          1
                                   No pseudopotential on this center.
   71          1
                                   No pseudopotential on this center.
   72          1
                                   No pseudopotential on this center.
   73          1
                                   No pseudopotential on this center.
   74          1
                                   No pseudopotential on this center.
   75          1
                                   No pseudopotential on this center.
   76         34
                                   No pseudopotential on this center.
   77          6
                                   No pseudopotential on this center.
   78          8
                                   No pseudopotential on this center.
   79          8
                                   No pseudopotential on this center.
   80          1
                                   No pseudopotential on this center.
   81          1
                                   No pseudopotential on this center.
   82          6
                                   No pseudopotential on this center.
   83          8
                                   No pseudopotential on this center.
   84          8
                                   No pseudopotential on this center.
   85          1
                                   No pseudopotential on this center.
 ======================================================================================================
 There are   802 symmetry adapted cartesian basis functions of A   symmetry.
 There are   752 symmetry adapted basis functions of A   symmetry.
   752 basis functions,  1543 primitive gaussians,   802 cartesian basis functions
   201 alpha electrons      201 beta electrons
       nuclear repulsion energy      8357.2433855492 Hartrees.
 NAtoms=   85 NActive=   85 NUniq=   85 SFac= 1.00D+00 NAtFMM=   60 NAOKFM=T Big=T
 Integral buffers will be    131072 words long.
 Raffenetti 2 integral format.
 Two-electron integral symmetry is turned on.
 One-electron integrals computed using PRISM.
   1 Symmetry operations used in ECPInt.
 ECPInt:  NShTT=   39060 NPrTT=  238686 LenC2=   27939 LenP2D=   85516.
 LDataN:  DoStor=T MaxTD1= 7 Len=  274
 NBasis=   752 RedAO= T EigKep=  2.15D-03  NBF=   752
 NBsUse=   752 1.00D-06 EigRej= -1.00D+00 NBFU=   752
 Defaulting to unpruned grid for atomic number  79.
 ExpMin= 2.79D-02 ExpMax= 5.61D+05 ExpMxC= 5.42D+03 IAcc=3 IRadAn=         5 AccDes= 0.00D+00
 Harris functional with IExCor=  402 and IRadAn=       5 diagonalized for initial guess.
 HarFok:  IExCor=  402 AccDes= 0.00D+00 IRadAn=         5 IDoV= 1 UseB2=F ITyADJ=14
 ICtDFT=  3500011 ScaDFX=  1.000000  1.000000  1.000000  1.000000
 Defaulting to unpruned grid for atomic number  79.
 Defaulting to unpruned grid for atomic number  79.
 Defaulting to unpruned grid for atomic number  79.
 Defaulting to unpruned grid for atomic number  79.
 Defaulting to unpruned grid for atomic number  79.
 Defaulting to unpruned grid for atomic number  79.
 Defaulting to unpruned grid for atomic number  79.
 Defaulting to unpruned grid for atomic number  79.
 Defaulting to unpruned grid for atomic number  79.
 Defaulting to unpruned grid for atomic number  79.
 Defaulting to unpruned grid for atomic number  79.
 Defaulting to unpruned grid for atomic number  79.
 FoFCou: FMM=F IPFlag=           0 FMFlag=      100000 FMFlg1=        2001
         NFxFlg=           0 DoJE=T BraDBF=F KetDBF=T FulRan=T
         wScrn=  0.000000 ICntrl=     500 IOpCl=  0 I1Cent=   200000004 NGrid=           0
         NMat0=    1 NMatS0=      1 NMatT0=    0 NMatD0=    1 NMtDS0=    0 NMtDT0=    0
 Petite list used in FoFCou.
 Requested convergence on RMS density matrix=1.00D-08 within 128 cycles.
 Requested convergence on MAX density matrix=1.00D-06.
 Requested convergence on             energy=1.00D-06.
 No special actions if energy rises.
 Defaulting to unpruned grid for atomic number  79.
 Defaulting to unpruned grid for atomic number  79.
 Defaulting to unpruned grid for atomic number  79.
 Defaulting to unpruned grid for atomic number  79.
 Defaulting to unpruned grid for atomic number  79.
 Defaulting to unpruned grid for atomic number  79.
 Defaulting to unpruned grid for atomic number  79.
 Defaulting to unpruned grid for atomic number  79.
 Defaulting to unpruned grid for atomic number  79.
 Defaulting to unpruned grid for atomic number  79.
 Defaulting to unpruned grid for atomic number  79.
 Defaulting to unpruned grid for atomic number  79.
 EnCoef did     5 forward-backward iterations
 SCF Done:  E(RB3LYP) =  -5674.57883791     A.U. after   18 cycles
            NFock= 18  Conv=0.72D-08     -V/T= 2.0179

 **********************************************************************

            Population analysis using the SCF density.

 **********************************************************************

 Orbital symmetries:
       Occupied  (A) (A) (A) (A) (A) (A) (A) (A) (A) (A) (A) (A)
                 (A) (A) (A) (A) (A) (A) (A) (A) (A) (A) (A) (A)
                 (A) (A) (A) (A) (A) (A) (A) (A) (A) (A) (A) (A)
                 (A) (A) (A) (A) (A) (A) (A) (A) (A) (A) (A) (A)
                 (A) (A) (A) (A) (A) (A) (A) (A) (A) (A) (A) (A)
                 (A) (A) (A) (A) (A) (A) (A) (A) (A) (A) (A) (A)
                 (A) (A) (A) (A) (A) (A) (A) (A) (A) (A) (A) (A)
                 (A) (A) (A) (A) (A) (A) (A) (A) (A) (A) (A) (A)
                 (A) (A) (A) (A) (A) (A) (A) (A) (A) (A) (A) (A)
                 (A) (A) (A) (A) (A) (A) (A) (A) (A) (A) (A) (A)
                 (A) (A) (A) (A) (A) (A) (A) (A) (A) (A) (A) (A)
                 (A) (A) (A) (A) (A) (A) (A) (A) (A) (A) (A) (A)
                 (A) (A) (A) (A) (A) (A) (A) (A) (A) (A) (A) (A)
                 (A) (A) (A) (A) (A) (A) (A) (A) (A) (A) (A) (A)
                 (A) (A) (A) (A) (A) (A) (A) (A) (A) (A) (A) (A)
                 (A) (A) (A) (A) (A) (A) (A) (A) (A) (A) (A) (A)
                 (A) (A) (A) (A) (A) (A) (A) (A) (A)
       Virtual   (A) (A) (A) (A) (A) (A) (A) (A) (A) (A) (A) (A)
                 (A) (A) (A) (A) (A) (A) (A) (A) (A) (A) (A) (A)
                 (A) (A) (A) (A) (A) (A) (A) (A) (A) (A) (A) (A)
                 (A) (A) (A) (A) (A) (A) (A) (A) (A) (A) (A) (A)
                 (A) (A) (A) (A) (A) (A) (A) (A) (A) (A) (A) (A)
                 (A) (A) (A) (A) (A) (A) (A) (A) (A) (A) (A) (A)
                 (A) (A) (A) (A) (A) (A) (A) (A) (A) (A) (A) (A)
                 (A) (A) (A) (A) (A) (A) (A) (A) (A) (A) (A) (A)
                 (A) (A) (A) (A) (A) (A) (A) (A) (A) (A) (A) (A)
                 (A) (A) (A) (A) (A) (A) (A) (A) (A) (A) (A) (A)
                 (A) (A) (A) (A) (A) (A) (A) (A) (A) (A) (A) (A)
                 (A) (A) (A) (A) (A) (A) (A) (A) (A) (A) (A) (A)
                 (A) (A) (A) (A) (A) (A) (A) (A) (A) (A) (A) (A)
                 (A) (A) (A) (A) (A) (A) (A) (A) (A) (A) (A) (A)
                 (A) (A) (A) (A) (A) (A) (A) (A) (A) (A) (A) (A)
                 (A) (A) (A) (A) (A) (A) (A) (A) (A) (A) (A) (A)
                 (A) (A) (A) (A) (A) (A) (A) (A) (A) (A) (A) (A)
                 (A) (A) (A) (A) (A) (A) (A) (A) (A) (A) (A) (A)
                 (A) (A) (A) (A) (A) (A) (A) (A) (A) (A) (A) (A)
                 (A) (A) (A) (A) (A) (A) (A) (A) (A) (A) (A) (A)
                 (A) (A) (A) (A) (A) (A) (A) (A) (A) (A) (A) (A)
                 (A) (A) (A) (A) (A) (A) (A) (A) (A) (A) (A) (A)
                 (A) (A) (A) (A) (A) (A) (A) (A) (A) (A) (A) (A)
                 (A) (A) (A) (A) (A) (A) (A) (A) (A) (A) (A) (A)
                 (A) (A) (A) (A) (A) (A) (A) (A) (A) (A) (A) (A)
                 (A) (A) (A) (A) (A) (A) (A) (A) (A) (A) (A) (A)
                 (A) (A) (A) (A) (A) (A) (A) (A) (A) (A) (A) (A)
                 (A) (A) (A) (A) (A) (A) (A) (A) (A) (A) (A) (A)
                 (A) (A) (A) (A) (A) (A) (A) (A) (A) (A) (A) (A)
                 (A) (A) (A) (A) (A) (A) (A) (A) (A) (A) (A) (A)
                 (A) (A) (A) (A) (A) (A) (A) (A) (A) (A) (A) (A)
                 (A) (A) (A) (A) (A) (A) (A) (A) (A) (A) (A) (A)
                 (A) (A) (A) (A) (A) (A) (A) (A) (A) (A) (A) (A)
                 (A) (A) (A) (A) (A) (A) (A) (A) (A) (A) (A) (A)
                 (A) (A) (A) (A) (A) (A) (A) (A) (A) (A) (A) (A)
                 (A) (A) (A) (A) (A) (A) (A) (A) (A) (A) (A) (A)
                 (A) (A) (A) (A) (A) (A) (A) (A) (A) (A) (A) (A)
                 (A) (A) (A) (A) (A) (A) (A) (A) (A) (A) (A) (A)
                 (A) (A) (A) (A) (A) (A) (A) (A) (A) (A) (A) (A)
                 (A) (A) (A) (A) (A) (A) (A) (A) (A) (A) (A) (A)
                 (A) (A) (A) (A) (A) (A) (A) (A) (A) (A) (A) (A)
                 (A) (A) (A) (A) (A) (A) (A) (A) (A) (A) (A) (A)
                 (A) (A) (A) (A) (A) (A) (A) (A) (A) (A) (A) (A)
                 (A) (A) (A) (A) (A) (A) (A) (A) (A) (A) (A) (A)
                 (A) (A) (A) (A) (A) (A) (A) (A) (A) (A) (A) (A)
                 (A) (A) (A) (A) (A) (A) (A) (A) (A) (A) (A)
 The electronic state is 1-A.
 Alpha  occ. eigenvalues -- -453.54263 -88.85665 -88.85027 -77.13147 -57.26139
 Alpha  occ. eigenvalues --  -52.03708 -52.03620 -52.03390 -19.19615 -19.19360
 Alpha  occ. eigenvalues --  -19.18810 -19.14154 -19.14066 -19.13350 -19.13134
 Alpha  occ. eigenvalues --  -19.12573 -19.11315 -19.11253 -19.09974 -14.36746
 Alpha  occ. eigenvalues --  -14.36588 -14.34517 -14.34224 -14.30465 -10.32229
 Alpha  occ. eigenvalues --  -10.32228 -10.31644 -10.30213 -10.28375 -10.28322
 Alpha  occ. eigenvalues --  -10.27423 -10.24784 -10.24355 -10.22638 -10.22423
 Alpha  occ. eigenvalues --  -10.22376 -10.21973 -10.21972 -10.21652 -10.21490
 Alpha  occ. eigenvalues --  -10.21174 -10.21132 -10.20289 -10.19793 -10.19622
 Alpha  occ. eigenvalues --  -10.19419 -10.19375  -7.92799  -7.92323  -7.61131
 Alpha  occ. eigenvalues --   -6.61107  -5.89219  -5.88884  -5.88729  -5.88438
 Alpha  occ. eigenvalues --   -5.88287  -5.87754  -5.74128  -5.73855  -5.72873
 Alpha  occ. eigenvalues --   -4.77232  -4.77225  -4.77065  -4.21940  -2.35966
 Alpha  occ. eigenvalues --   -2.35387  -2.33639  -2.10330  -2.10304  -2.09496
 Alpha  occ. eigenvalues --   -2.09277  -2.09084  -1.11126  -1.11060  -1.10391
 Alpha  occ. eigenvalues --   -1.04726  -1.03447  -1.03247  -1.02322  -1.01885
 Alpha  occ. eigenvalues --   -1.01841  -1.01060  -1.00646  -0.94086  -0.92545
 Alpha  occ. eigenvalues --   -0.91786  -0.91295  -0.88092  -0.82862  -0.81486
 Alpha  occ. eigenvalues --   -0.78653  -0.78547  -0.78352  -0.76749  -0.74321
 Alpha  occ. eigenvalues --   -0.74221  -0.72727  -0.71716  -0.70225  -0.69482
 Alpha  occ. eigenvalues --   -0.68158  -0.65976  -0.65311  -0.64451  -0.64232
 Alpha  occ. eigenvalues --   -0.62075  -0.61856  -0.61488  -0.60733  -0.59959
 Alpha  occ. eigenvalues --   -0.58348  -0.57293  -0.56883  -0.56636  -0.55791
 Alpha  occ. eigenvalues --   -0.53376  -0.51962  -0.51266  -0.51116  -0.50155
 Alpha  occ. eigenvalues --   -0.49738  -0.49656  -0.49579  -0.49042  -0.48666
 Alpha  occ. eigenvalues --   -0.48486  -0.48284  -0.47987  -0.47862  -0.47778
 Alpha  occ. eigenvalues --   -0.47358  -0.47099  -0.46404  -0.46180  -0.46015
 Alpha  occ. eigenvalues --   -0.45109  -0.44588  -0.44515  -0.44364  -0.43954
 Alpha  occ. eigenvalues --   -0.43747  -0.43574  -0.43259  -0.42558  -0.41738
 Alpha  occ. eigenvalues --   -0.41623  -0.41221  -0.41159  -0.40967  -0.40879
 Alpha  occ. eigenvalues --   -0.40812  -0.40529  -0.40273  -0.40174  -0.40022
 Alpha  occ. eigenvalues --   -0.39866  -0.39322  -0.39192  -0.39047  -0.38958
 Alpha  occ. eigenvalues --   -0.38670  -0.38383  -0.38141  -0.37627  -0.37512
 Alpha  occ. eigenvalues --   -0.37407  -0.37100  -0.37033  -0.36943  -0.36286
 Alpha  occ. eigenvalues --   -0.36017  -0.35838  -0.35683  -0.34394  -0.33948
 Alpha  occ. eigenvalues --   -0.33463  -0.32917  -0.32192  -0.32180  -0.32018
 Alpha  occ. eigenvalues --   -0.31472  -0.31001  -0.29799  -0.28557  -0.28369
 Alpha  occ. eigenvalues --   -0.28245  -0.27844  -0.27468  -0.26731  -0.26313
 Alpha  occ. eigenvalues --   -0.26097  -0.25730  -0.25056  -0.24654  -0.24321
 Alpha  occ. eigenvalues --   -0.24260  -0.23393  -0.23304  -0.22994  -0.21940
 Alpha  occ. eigenvalues --   -0.19819
 Alpha virt. eigenvalues --   -0.11856  -0.01710  -0.00898  -0.00723  -0.00448
 Alpha virt. eigenvalues --    0.00591   0.00878   0.01121   0.02023   0.02605
 Alpha virt. eigenvalues --    0.02840   0.03390   0.04002   0.04519   0.05109
 Alpha virt. eigenvalues --    0.06163   0.06317   0.07045   0.07101   0.07707
 Alpha virt. eigenvalues --    0.08228   0.08749   0.08923   0.09113   0.09307
 Alpha virt. eigenvalues --    0.10297   0.10459   0.11176   0.11588   0.11822
 Alpha virt. eigenvalues --    0.12686   0.12720   0.13005   0.13644   0.13767
 Alpha virt. eigenvalues --    0.14084   0.14480   0.14797   0.15011   0.15471
 Alpha virt. eigenvalues --    0.15756   0.16226   0.16397   0.16418   0.16770
 Alpha virt. eigenvalues --    0.16992   0.17214   0.17381   0.17640   0.17996
 Alpha virt. eigenvalues --    0.18134   0.18722   0.18911   0.19030   0.19438
 Alpha virt. eigenvalues --    0.19533   0.19830   0.19922   0.20173   0.20338
 Alpha virt. eigenvalues --    0.20710   0.20967   0.21274   0.21526   0.21832
 Alpha virt. eigenvalues --    0.22214   0.22324   0.23138   0.23470   0.23627
 Alpha virt. eigenvalues --    0.23932   0.24337   0.24521   0.24757   0.25214
 Alpha virt. eigenvalues --    0.25548   0.25734   0.26295   0.27274   0.27341
 Alpha virt. eigenvalues --    0.27974   0.28654   0.29482   0.30609   0.31039
 Alpha virt. eigenvalues --    0.33260   0.33964   0.34899   0.34964   0.35461
 Alpha virt. eigenvalues --    0.35819   0.36371   0.36868   0.37143   0.37411
 Alpha virt. eigenvalues --    0.37929   0.39138   0.39672   0.40197   0.40456
 Alpha virt. eigenvalues --    0.40713   0.41168   0.41973   0.42229   0.42570
 Alpha virt. eigenvalues --    0.42816   0.43932   0.44392   0.45415   0.46247
 Alpha virt. eigenvalues --    0.47108   0.47702   0.48079   0.48594   0.49598
 Alpha virt. eigenvalues --    0.50189   0.50613   0.51127   0.51962   0.52606
 Alpha virt. eigenvalues --    0.53070   0.53808   0.54512   0.54638   0.54934
 Alpha virt. eigenvalues --    0.55384   0.56116   0.56273   0.56589   0.56617
 Alpha virt. eigenvalues --    0.57132   0.57334   0.57611   0.58489   0.58749
 Alpha virt. eigenvalues --    0.59271   0.59394   0.59546   0.59852   0.60818
 Alpha virt. eigenvalues --    0.60962   0.61031   0.61390   0.62007   0.62433
 Alpha virt. eigenvalues --    0.62662   0.62943   0.63908   0.64126   0.64477
 Alpha virt. eigenvalues --    0.64694   0.64932   0.65739   0.65911   0.66265
 Alpha virt. eigenvalues --    0.66524   0.66884   0.67242   0.67670   0.68083
 Alpha virt. eigenvalues --    0.68559   0.68960   0.69219   0.69427   0.70119
 Alpha virt. eigenvalues --    0.70531   0.70853   0.71429   0.72021   0.72235
 Alpha virt. eigenvalues --    0.72966   0.73099   0.74024   0.74338   0.74876
 Alpha virt. eigenvalues --    0.75052   0.75368   0.76034   0.76305   0.76563
 Alpha virt. eigenvalues --    0.77163   0.77203   0.77861   0.78439   0.78561
 Alpha virt. eigenvalues --    0.78887   0.79593   0.80205   0.80340   0.80879
 Alpha virt. eigenvalues --    0.81360   0.81430   0.81644   0.82158   0.83027
 Alpha virt. eigenvalues --    0.83159   0.83231   0.83700   0.84087   0.84337
 Alpha virt. eigenvalues --    0.84585   0.85028   0.85288   0.85690   0.85862
 Alpha virt. eigenvalues --    0.86103   0.86434   0.86649   0.86707   0.87165
 Alpha virt. eigenvalues --    0.87374   0.87575   0.88134   0.88257   0.88371
 Alpha virt. eigenvalues --    0.88526   0.88733   0.89443   0.89767   0.89844
 Alpha virt. eigenvalues --    0.90246   0.90580   0.90718   0.90785   0.91238
 Alpha virt. eigenvalues --    0.91669   0.91821   0.92183   0.92273   0.92476
 Alpha virt. eigenvalues --    0.92782   0.92968   0.93468   0.93739   0.94269
 Alpha virt. eigenvalues --    0.94573   0.94974   0.95353   0.95879   0.96138
 Alpha virt. eigenvalues --    0.96519   0.96613   0.97317   0.97423   0.97507
 Alpha virt. eigenvalues --    0.97836   0.98276   0.98451   0.99153   0.99301
 Alpha virt. eigenvalues --    0.99607   1.00247   1.00373   1.00750   1.01109
 Alpha virt. eigenvalues --    1.01454   1.01730   1.02138   1.02370   1.02721
 Alpha virt. eigenvalues --    1.03153   1.03520   1.03971   1.04944   1.05517
 Alpha virt. eigenvalues --    1.05703   1.06625   1.07104   1.07640   1.07764
 Alpha virt. eigenvalues --    1.08552   1.08996   1.09147   1.09525   1.11398
 Alpha virt. eigenvalues --    1.11752   1.12605   1.12988   1.13846   1.14282
 Alpha virt. eigenvalues --    1.14867   1.15331   1.15928   1.17045   1.17679
 Alpha virt. eigenvalues --    1.18133   1.18600   1.19135   1.19505   1.20284
 Alpha virt. eigenvalues --    1.20877   1.21591   1.21938   1.22898   1.23662
 Alpha virt. eigenvalues --    1.25105   1.25904   1.25953   1.26795   1.27977
 Alpha virt. eigenvalues --    1.29239   1.30591   1.32066   1.34035   1.34531
 Alpha virt. eigenvalues --    1.34644   1.35941   1.36542   1.37369   1.37665
[...]
 0.00039180,-0.00006796,0.00036119,0.00028171,-0.00063121,0.00030582,0.
 00016853,-0.00001387,-0.00014888,-0.00009991,0.00038488,0.00005634,0.0
 0044167,-0.00031264,-0.00008526,-0.00021423,0.00031659,0.00027892,-0.0
 0006957,-0.00034085,0.00030389,-0.00021620,-0.00043929,0.00018807,-0.0
 0011230,-0.00001101,-0.00018790,0.00036638,0.00000875,0.00022991,-0.00
 050221,0.00043669,0.00035238,-0.00046289,-0.00028567,-0.00003500,0.000
 19471,-0.00035756,-0.00023078,0.00018846,0.00003772,0.00007095,0.00016
 505,0.00038493,0.00004931,-0.00001009,-0.00020876,-0.00003149,0.000047
 28,-0.00021439,-0.00004221,-0.00007876,-0.00001792,0.00002666,0.000039
 72,0.00000840,-0.00001983,-0.00001485,0.00001564,-0.00000431,-0.000060
 77,0.00000790,0.00000099,-0.00000637,0.00001698,-0.00001518,-0.0000421
 6,-0.00000847,-0.00002875,-0.00003888,-0.00002563,0.00001083,0.0000220
 6,0.00001419,-0.00002970,-0.00000035,0.00011979,-0.00003893,0.00000384
 ,-0.00016552,-0.00003672,-0.00003050,0.00002706,-0.00006697,0.00010882
 ,-0.00006876,0.00003706,0.00002548,0.00029521,-0.00013812,-0.00007841,
 -0.00007405,-0.00001880,0.00005413,0.00004530,-0.00003307,-0.00002778,
 -0.00000369,0.00001356,0.00000191,0.00021727,-0.00012511,-0.00013812,-
 0.00000176,-0.00000340,-0.00003454,0.00002923,-0.00000761,-0.00003269,
 0.00004536,-0.00000422,-0.00005636,0.00003861,0.00001444,0.00001692,0.
 00005852,0.00002886,0.00068707,-0.00035729,0.00229267,-0.00105060,-0.0
 0009754,-0.00110098,0.00098249,-0.00076749,-0.00103230,0.00057664,-0.0
 0000931,0.00000963,-0.00006602,-0.00194646,-0.00091205,0.00094951,-0.2
 6248575,-0.03723798,-0.01388586,-0.08218996,0.01123030,-0.04913114,0.4
 2454573,0.00012512,-0.00037418,0.00020367,-0.00073547,-0.00078951,0.00
 011816,-0.00008024,0.00011645,0.00042774,0.00018762,-0.00003507,-0.000
 14603,0.00016172,-0.00014002,-0.00004052,0.00017077,0.00036851,-0.0000
 5796,0.00001490,0.00005871,0.00011570,-0.00014590,-0.00013614,0.000066
 79,0.00024755,0.00023876,-0.00001859,0.00005610,-0.00007596,-0.0000283
 8,-0.00001548,-0.00003856,-0.00000661,0.00012244,0.00022539,-0.0006942
 5,0.00003775,0.00044580,0.00073800,-0.00046194,0.00003603,-0.00017713,
 0.00007699,0.00003927,0.00001088,-0.00007078,-0.00000708,0.00001951,0.
 00001923,0.00001811,0.00000177,-0.00000228,0.00000246,0.00000667,0.000
 01046,0.00004220,-0.00001066,-0.00007528,-0.00008486,0.00000836,0.0000
 7120,0.00001254,-0.00004705,0.00001013,0.00000756,-0.00000641,0.000037
 30,0.00003658,-0.00001746,0.00006757,0.00048180,-0.00018079,0.00196602
 ,-0.00375744,0.00336403,-0.03066563,-0.00247742,0.00851553,0.00014625,
 0.00005350,0.00009446,-0.00184560,-0.00057031,0.00026826,-0.00000333,0
 .00001171,0.00001873,0.00001018,-0.00000420,-0.00000649,-0.00000079,-0
 .00004116,-0.00000939,-0.00001023,0.00004517,0.00000932,0.00000337,-0.
 00001300,-0.00000642,0.00001576,0.00003578,0.00002448,-0.00002357,0.00
 002549,-0.00000113,0.00000344,-0.00001367,0.00000862,0.00005698,-0.000
 13980,-0.00010087,0.00002935,0.00009630,0.00007704,-0.00011967,0.00008
 214,0.00004010,0.00001835,-0.00005141,-0.00001612,0.00006719,-0.000025
 87,0.00012241,-0.00004765,0.00001311,-0.00004950,0.00004648,0.00013668
 ,-0.00013628,-0.00007705,0.00019777,-0.00016728,-0.00010062,0.00007672
 ,-0.00004214,0.00002121,-0.00004479,0.00001045,-0.00000941,-0.00004093
 ,-0.00002160,0.00008128,0.00003154,-0.00005586,-0.00006134,0.00002517,
 0.00002134,-0.00006066,-0.00001456,0.00002105,0.00000872,0.00000081,0.
 00002788,0.00007159,0.00000141,0.00000019,-0.00003892,0.00000202,0.000
 00724,-0.00004041,-0.00000137,-0.00001588,-0.00000198,0.00000511,0.000
 00783,0.00000672,-0.00000446,-0.00000521,-0.00002971,-0.00000539,-0.00
 001625,-0.00000095,0.00000324,-0.00000176,0.00000286,-0.00000379,-0.00
 000584,-0.00000081,-0.00000593,-0.00000681,-0.00000429,0.00000352,0.00
 000370,0.00000394,-0.00000471,-0.00000004,0.00002080,-0.00000933,-0.00
 000061,-0.00006781,-0.00002645,-0.00000882,0.00000753,-0.00001613,0.00
 004941,-0.00000629,0.00000930,0.00000305,0.00003869,-0.00003513,-0.000
 02708,0.00003466,0.00000933,0.00001304,0.00004898,-0.00003060,-0.00003
 189,-0.00000668,0.00000652,0.00000581,0.00003375,-0.00004121,-0.000030
 12,0.00000075,0.00000106,-0.00000336,0.00000409,-0.00000397,-0.0000068
 6,0.00001422,-0.00001101,-0.00000767,0.00000775,-0.00000254,0.00000358
 ,-0.00010038,0.00022029,0.00015073,-0.00074133,0.00126096,-0.00043292,
 -0.00034746,-0.00036315,0.00030111,-0.00082504,-0.00083737,0.00052282,
 -0.00004791,-0.00012448,-0.00006710,-0.00033688,0.00127264,-0.00108619
 ,-0.05451811,-0.09633510,0.02729830,0.01835216,0.03172504,0.00237241,0
 .10190745,0.24482983,0.00028703,-0.00008303,-0.00050982,-0.00018405,0.
 00000289,-0.00023764,0.00005296,-0.00000128,0.00018698,0.00000532,0.00
 001712,-0.00002001,0.00004912,-0.00005600,-0.00001007,-0.00000556,0.00
 012527,0.00000726,0.00001141,-0.00001826,0.00003520,-0.00000288,0.0000
 1384,0.00003006,0.00004672,0.00002025,0.00006474,-0.00000454,-0.000003
 66,-0.00000895,0.00001175,-0.00002100,-0.00000132,0.00001446,-0.000129
 30,-0.00037556,0.00006745,0.00022272,0.00028812,-0.00011623,-0.0002165
 9,-0.00015709,0.00000795,-0.00000936,0.00005929,-0.00000705,0.00000509
 ,-0.00001269,0.00000721,-0.00000218,0.00000201,0.00000047,0.00000753,0
 .00001208,-0.00000359,0.00000400,0.00000165,0.00004453,-0.00002051,0.0
 0000849,-0.00003480,-0.00000256,0.00000447,-0.00001340,0.00000347,0.00
 001702,0.00001532,-0.00002135,-0.00002047,-0.00000497,-0.00037721,0.00
 041091,-0.00054427,0.00463112,-0.00267583,0.02799299,0.01155156,0.0022
 4473,0.00025533,0.00022403,-0.00021461,0.00081078,-0.00101754,0.002078
 94,0.00000676,-0.00000117,0.00000203,-0.00000213,0.00000100,0.00000127
 ,-0.00000079,0.00000301,-0.00002193,0.00000458,-0.00000547,0.00000992,
 -0.00001728,0.00000230,0.00000134,0.00002624,0.00000056,0.00001174,0.0
 0000631,-0.00000302,0.00001495,-0.00000129,0.00000568,-0.00000308,-0.0
 0001007,-0.00001333,-0.00001790,0.00001637,0.00000399,0.00002061,-0.00
 001908,0.00000399,0.00001182,-0.00001138,0.00000970,-0.00000775,-0.000
 02601,-0.00000544,-0.00005850,0.00001254,0.00001600,0.00003431,-0.0000
 1420,-0.00002164,0.00009078,-0.00003139,-0.00018554,0.00015998,0.00002
 374,-0.00002858,0.00002932,-0.00004062,-0.00001007,0.00010401,-0.00003
 998,0.00012619,-0.00016911,-0.00006822,-0.00000645,-0.00008226,0.00004
 114,0.00000180,0.00006103,0.00002975,0.00000815,0.00002092,-0.00000770
 ,-0.00000338,-0.00001456,-0.00002628,-0.00000338,-0.00002113,0.0000109
 7,0.00000071,0.00001265,0.00002100,0.00000338,0.00001608,-0.00000017,0
 .00000194,0.00000175,-0.00000218,-0.00000059,-0.00000160,-0.00001279,0
 .00000464,-0.00001270,0.00000057,-0.00000097,0.00000028,-0.00000296,0.
 00000011,-0.00000263,0.00000133,0.00000104,0.00000151,-0.00000081,-0.0
 0000060,-0.00000132,0.00000041,0.00000127,0.00000199,-0.00000434,0.000
 00082,-0.00000261,0.00004485,0.00000889,0.00000192,0.00003286,0.000005
 44,-0.00002051,0.00000315,0.00000010,0.00000017,-0.00000089,-0.0000047
 3,-0.00001200,-0.00003912,-0.00001859,-0.00000663,-0.00004464,0.000019
 46,0.00003842,0.00000923,-0.00000558,-0.00000158,-0.00001028,-0.000003
 92,-0.00001058,0.00000029,0.00000274,0.00000061,0.00000138,-0.00000073
 ,0.00000132,-0.00000972,0.00000070,-0.00000015,-0.00000362,-0.00000035
 ,-0.00000361,0.00013432,-0.00014934,0.00017586,0.00088914,-0.00101037,
 0.00035481,0.00031523,0.00021394,-0.00010977,0.00077548,0.00080029,-0.
 00044318,0.00006828,0.00011833,0.00002345,0.00148542,0.00118455,-0.000
 70760,0.01412389,0.03323148,-0.10523514,-0.05990427,0.00144950,0.01022
 049,-0.01949284,-0.25493360,0.39208144,-0.00026315,0.00014553,0.000074
 37,-0.00009185,0.00014255,0.00016777,-0.00019711,-0.00017077,-0.000085
 07,0.00009468,-0.00008758,-0.00005008,0.00002979,0.00001688,0.00000041
 ,0.00001397,-0.00001478,-0.00001607,-0.00000175,-0.00001347,-0.0000161
 0,0.00001844,0.00001136,0.00004196,-0.00003083,-0.00000375,-0.00004850
 ,0.00000265,-0.00001247,-0.00000078,-0.00000700,0.00000441,0.00000196,
 0.00036903,0.00030712,0.00018005,0.00007497,0.00009383,0.00000425,-0.0
 0042210,0.00031223,-0.00012038,0.00001222,-0.00016348,0.00006254,0.000
 04718,-0.00000458,0.00001592,0.00000466,-0.00001851,-0.00001165,-0.000
 00694,0.00000530,-0.00000563,-0.00000754,0.00000999,0.00000351,-0.0000
 1810,-0.00000916,0.00000661,-0.00000640,0.00000042,0.00001311,0.000001
 96,0.00000623,-0.00002070,0.00001061,-0.00000658,-0.00000422,0.0002468
 9,0.00012762,-0.00010686,0.00020393,-0.00150211,0.00107992,-0.00664111
 ,-0.00028344,-0.00233442,-0.00008282,-0.00010609,0.00001409,0.00018949
 ,0.00051295,-0.00022201,0.00001893,-0.00001062,-0.00002548,-0.00001245
 ,0.00000426,0.00000740,-0.00001866,-0.00000994,0.00003672,0.00002816,0
 .00000486,-0.00001662,-0.00005405,-0.00000370,0.00004182,0.00006535,0.
 00000228,-0.00004538,0.00004137,-0.00000940,-0.00002591,-0.00001096,0.
 00000192,-0.00000162,-0.00010149,0.00011221,0.00007678,0.00003014,-0.0
 0007217,-0.00005272,0.00013882,-0.00005968,-0.00003334,0.00001111,0.00
 002627,0.00002364,-0.00008192,-0.00002677,-0.00007924,0.00007028,0.000
 02784,0.00004225,-0.00007573,-0.00003126,-0.00002296,0.00006447,-0.000
 04456,0.00002149,0.00008626,-0.00002724,0.00001805,0.00000054,0.000031
 93,-0.00007057,-0.00001758,-0.00004094,0.00008963,-0.00010076,-0.00008
 110,0.00008947,0.00006192,0.00001672,-0.00003535,0.00007941,0.00005604
 ,-0.00003917,-0.00000747,-0.00001745,-0.00003598,-0.00008490,-0.000012
 61,0.00000139,0.00004574,0.00000852,-0.00000978,0.00004760,0.00001049,
 0.00001777,0.00000444,-0.00000547,-0.00000858,-0.00000036,0.00000401,0
 .00000205,-0.00001513,0.00000042,0.00001003,-0.00000251,0.00000056,0.0
 0000134,-0.00000410,0.00000310,0.00000943,0.00000239,0.00000655,0.0000
 0899,0.00000587,-0.00000198,-0.00000529,-0.00000269,0.00000711,0.00000
 032,-0.00002686,0.00000797,-0.00000134,0.00002666,0.00000337,0.0000055
 7,0.00000182,0.00001240,-0.00001423,0.00001799,-0.00000700,-0.00000667
 ,-0.00007264,0.00002666,0.00001304,0.00002798,0.00000528,-0.00001009,-
 0.00000309,-0.00000214,0.00000096,0.00000019,-0.00000207,0.00000142,-0
 .00004807,0.00002134,0.00002431,0.00000070,0.00000123,0.00000803,-0.00
 000639,0.00000084,0.00000690,-0.00000938,-0.00000219,0.00001262,-0.000
 00878,-0.00000410,-0.00000388,-0.00001511,0.00003295,-0.00009097,-0.00
 053570,-0.00002462,-0.00000483,0.00005397,0.00010486,-0.00011146,-0.00
 001804,-0.00006213,0.00010425,-0.00005114,-0.00005088,-0.00000393,0.00
 001223,-0.00030053,-0.00005817,-0.01654146,-0.03910502,0.04738807,0.00
 745891,0.00536610,-0.00360609,-0.05939822,-0.03271950,0.03300035,0.075
 37862,-0.00008034,0.00017251,0.00005551,0.00037187,0.00037855,-0.00014
 993,0.00006861,-0.00008352,-0.00007284,-0.00013424,0.00005596,0.000092
 22,-0.00008064,0.00005976,0.00001478,-0.00010963,-0.00014186,0.0000506
 0,-0.00000619,-0.00001809,-0.00005723,0.00002760,0.00005607,-0.0000285
 8,-0.00013457,-0.00014095,0.00005386,-0.00003402,0.00005163,0.00001625
 ,0.00001858,0.00001420,-0.00000014,-0.00034976,-0.00003332,0.00012842,
 0.00004342,-0.00010377,-0.00027715,0.00058047,0.00002415,0.00004998,-0
 .00004775,-0.00024855,0.00004179,0.00002152,0.00000629,-0.00001919,-0.
 00001294,-0.00000191,0.00000403,0.00000320,-0.00000353,-0.00000013,-0.
 00000273,-0.00002710,0.00000448,0.00003674,0.00001789,0.00000152,-0.00
 001410,-0.00000213,0.00000785,-0.00000590,-0.00000193,0.00001807,-0.00
 001196,-0.00000349,0.00000695,0.00011990,0.00000932,-0.00001773,0.0002
 8995,-0.00061975,0.00084510,-0.00391660,0.00498173,0.00052172,-0.00008
 776,-0.00005466,0.00001922,0.00059511,0.00001520,0.00022182,-0.0000084
 6,-0.00000101,0.00000186,0.00000110,0.00000043,-0.00000052,0.00000898,
 0.00002516,-0.00000777,-0.00000918,-0.00002453,0.00000074,0.00002625,0
 .00000731,-0.00001635,-0.00004369,-0.00001851,0.00000628,-0.00000857,-
 0.00000822,0.00000970,0.00000373,0.00000563,-0.00000337,0.00002009,0.0
 0002377,0.00001983,-0.00003259,-0.00001866,-0.00001869,0.00000275,-0.0
 0001814,-0.00000778,-0.00001311,0.00000959,-0.00000127,0.00001376,0.00
 003071,-0.00000401,-0.00001407,-0.00002789,-0.00000790,0.00001548,-0.0
 0004047,0.00004561,0.00001762,-0.00001146,0.00000933,-0.00000001,-0.00
 001675,0.00000076,0.00000938,0.00001664,-0.00001974,0.00002586,-0.0000
 3285,0.00003474,0.00003107,0.00001965,0.00002094,-0.00001286,-0.000019
 37,-0.00001758,-0.00001582,-0.00002050,-0.00000203,0.00000201,0.000009
 01,0.00000766,0.00001031,0.00000624,0.00000669,-0.00000427,-0.00000518
 ,-0.00000381,-0.00000782,-0.00000556,-0.00000538,-0.00000122,-0.000000
 23,-0.00000029,-0.00000264,0.00000035,0.00000202,0.00002341,0.00000218
 ,0.00000580,0.00000149,-0.00000178,0.00000020,0.00000112,0.00000042,-0
 .00000083,-0.00000087,-0.00000005,-0.00000097,-0.00000023,-0.00000081,
 0.00000064,-0.00000081,-0.00000086,-0.00000049,0.00000268,0.00000110,0
 .00000191,0.00000628,0.00000937,0.00000288,-0.00002105,0.00000119,-0.0
 0000703,-0.00000620,-0.00000077,0.00000194,0.00001364,0.00000901,0.000
 00723,-0.00000931,0.00000258,0.00000586,-0.00000033,0.00000708,0.00000
 132,-0.00000088,0.00000042,-0.00000261,0.00000613,0.00001114,0.0000074
 8,-0.00000086,-0.00000233,-0.00000196,0.00000017,0.00000205,-0.0000000
 7,0.00000061,0.00000638,-0.00000198,0.00000103,0.00000352,0.00000105,-
 0.00002963,-0.00003913,-0.00010788,-0.00038376,0.00018318,-0.00027242,
 0.00012122,-0.00006056,0.00003958,-0.00000255,-0.00012880,0.00009485,-
 0.00003777,0.00000054,0.00000616,0.00066711,0.00047061,-0.00060419,-0.
 01125836,-0.00762772,0.01305173,0.00649497,-0.00382630,-0.00201127,-0.
 06027651,-0.17557429,0.20433614,0.06752731,0.18230881,0.00013125,-0.00
 000637,0.00000895,0.00024662,0.00009035,-0.00004501,0.00004836,0.00002
 410,-0.00019271,-0.00006796,0.00002972,0.00005436,-0.00009831,0.000068
 54,0.00002514,-0.00004605,-0.00009676,0.00002206,-0.00000054,-0.000010
 89,-0.00002893,0.00002791,0.00003591,-0.00003863,-0.00005550,-0.000061
 22,0.00001146,-0.00001261,0.00002158,0.00000807,0.00000268,0.00001270,
 0.00000031,-0.00019747,-0.00003379,0.00023732,-0.00001399,-0.00020482,
 -0.00040826,0.00019108,-0.00005354,0.00037309,0.00003111,0.00009013,0.
 00002992,-0.00000154,0.00000203,-0.00000875,-0.00000824,0.00000451,0.0
 0000435,0.00000357,-0.00000396,-0.00000393,0.00000255,-0.00001470,0.00
 000220,0.00001191,0.00002358,-0.00000862,-0.00000694,-0.00000361,0.000
 00382,0.00000094,-0.00000251,0.00000566,-0.00001581,-0.00000027,0.0000
 1076,-0.00009134,-0.00011341,-0.00001146,-0.00034165,0.00051060,0.0006
 6855,-0.00010790,0.00090381,0.00260633,0.00015017,0.00003699,-0.000088
 10,-0.00011214,-0.00044534,0.00059482,-0.00000898,0.00000149,0.0000033
 1,0.00000287,-0.00000123,-0.00000123,0.00000722,0.00001056,0.00000080,
 -0.00000988,-0.00000864,-0.00000145,0.00002705,0.00000396,-0.00001466,
 -0.00004018,-0.00000905,0.00000658,-0.00001283,-0.00000041,0.00000109,
 0.00000348,-0.00000063,0.00000120,0.00002744,-0.00000311,0.00000443,-0
 .00002468,0.00000237,-0.00000937,-0.00001382,0.00000237,-0.00000594,-0
 .00000388,-0.00000091,-0.00000105,0.00003508,0.00001008,0.00004373,-0.
 00002596,-0.00002001,-0.00002875,0.00002450,-0.00000489,0.00000427,0.0
 0000713,0.00002735,-0.00002686,-0.00002554,0.00000881,-0.00001917,0.00
 000290,-0.00000677,0.00001076,0.00000382,-0.00000501,-0.00001376,0.000
 04373,0.00003380,-0.00000422,-0.00002499,-0.00001482,-0.00000784,-0.00
 003059,-0.00002477,0.00000653,0.00000480,0.00000927,0.00001469,0.00002
 617,0.00000597,0.00000961,-0.00001255,-0.00000424,-0.00000415,-0.00001
 759,-0.00000527,-0.00001037,-0.00000147,0.00000014,0.00000065,-0.00000
 056,-0.00000026,0.00000088,0.00001839,-0.00000146,0.00000653,0.0000008
 2,-0.00000041,-0.00000010,0.00000208,-0.00000021,-0.00000077,-0.000001
 36,-0.00000131,-0.00000201,-0.00000080,0.00000027,0.00000163,-0.000000
 35,-0.00000220,-0.00000123,0.00000739,-0.00000135,0.00000208,-0.000016
 90,0.00000536,-0.00000153,-0.00001670,-0.00000869,0.00000900,-0.000008
 17,0.00000104,0.00000182,0.00001977,-0.00000123,0.00000791,-0.00001418
 ,0.00000132,0.00000581,0.00000509,0.00000616,-0.00000404,-0.00000045,0
 .00000049,-0.00000074,0.00002170,0.00000147,0.00000059,-0.00000071,-0.
 00000206,-0.00000287,0.00000120,0.00000093,-0.00000156,0.00000336,0.00
 000269,-0.00000313,0.00000268,0.00000236,0.00000227,-0.00001251,-0.000
 04526,-0.00000808,-0.00000422,0.00007200,0.00001055,0.00005760,-0.0000
 5328,0.00002118,-0.00000199,-0.00002985,-0.00002916,0.00000444,0.00000
 679,0.00000742,0.00007312,0.00063685,-0.00032833,0.00551489,0.00363851
 ,0.00192017,-0.00393421,-0.00255728,-0.00480533,0.07391560,0.21365276,
 -0.29774683,-0.07526844,-0.21613396,0.29714627\\0.00000738,-0.00004262
 ,-0.00000781,-0.00000284,-0.00000792,0.00001223,0.00000595,0.00001034,
 0.00000942,0.00000002,-0.00000848,0.00000022,0.00000269,0.00000091,-0.
 00000246,0.00000007,-0.00000283,0.00001949,0.00000048,-0.00000412,-0.0
 0000217,-0.00000121,-0.00000036,0.00000432,-0.00001163,0.00001558,0.00
 001413,0.00000991,-0.00000337,-0.00000542,-0.00000125,0.00000243,-0.00
 000932,0.00000015,-0.00001135,0.00000887,-0.00000091,-0.00000299,0.000
 00193,0.00000454,-0.00001050,-0.00000143,0.00000590,-0.00000645,-0.000
 00004,-0.00000440,-0.00001048,-0.00000006,0.00000698,-0.00000103,-0.00
 000037,0.00000249,0.00000542,0.00000144,0.00000590,-0.00000217,-0.0000
 0128,0.00001007,-0.00000009,-0.00000188,-0.00000700,-0.00000206,0.0000
 0099,0.00000182,-0.00000245,0.00000116,-0.00000486,-0.00000288,0.00000
 063,0.00000639,0.00000402,0.00001755,-0.00001039,-0.00000489,0.0000050
 4,0.00000516,-0.00001757,-0.00000495,0.00000258,-0.00000157,0.00000394
 ,-0.00000204,-0.00000451,0.00000321,0.00000648,0.00000756,-0.00000612,
 -0.00001063,-0.00000441,-0.00001372,-0.00001074,-0.00000374,0.00001016
 ,0.00000776,0.00000932,-0.00000880,0.00000813,0.00000566,0.00000200,0.
 00000105,0.00000335,0.,0.00000751,0.00000320,0.00000093,0.00000998,0.0
 0000944,-0.00000945,0.00002015,-0.00000419,-0.00000612,0.00000146,0.00
 000573,0.00000417,-0.00001757,-0.00000502,-0.00000248,-0.00000031,0.00
 002880,-0.00000557,0.00000526,-0.00000364,-0.00002114,-0.00000073,0.00
 000255,-0.00000042,-0.00001755,-0.00000736,0.00001001,-0.00000820,0.00
 000721,-0.00001797,-0.00001123,-0.00000689,0.00003529,0.00002109,-0.00
 002848,-0.00000473,-0.00001516,0.00002789,-0.00001226,-0.00001633,0.00
 007986,0.00000536,0.00000281,-0.00002319,-0.00000723,0.00000970,-0.000
 03750,0.00000523,-0.00001222,-0.00000946,-0.00000872,-0.00000431,0.000
 02623,-0.00000240,-0.00000391,-0.00000313,-0.00000018,-0.00000346,-0.0
 0000397,-0.00000367,-0.00000248,0.00000257,-0.00000262,-0.00000261,0.0
 0000017,-0.00000381,-0.00000041,-0.00000114,-0.00000240,0.00000374,0.0
 0000446,-0.00000384,-0.00000207,0.00000408,-0.00000497,-0.00000125,0.0
 0000289,-0.00000345,0.00000105,0.00000408,-0.00000447,0.00000619,-0.00
 000102,-0.00000199,0.00000027,0.00000433,-0.00000386,0.00000579,0.0000
 0106,-0.00000237,0.00001488,0.00000518,0.00000419,0.00000371,-0.000004
 26,-0.00000209,0.00001106,0.00000930,-0.00000265,-0.00000641,-0.000008
 89,-0.00000134,-0.00000002,-0.00000147,0.00000036,0.00000250,0.0000011
 1,0.00000470,0.00000415,-0.00000334,-0.00001362,-0.00000118,0.00000983
 ,-0.00000340,-0.00000254,0.00000410,-0.00000531,-0.00000806,0.00001327
 ,-0.00000135,0.00000062,0.00000839,-0.00000542,-0.00000375,0.00000016,
 0.00000844,0.00000057,-0.00001449,-0.00000961,-0.00000342,0.00000028,0
 .00001236,-0.00000922,0.00000451,0.00000229,-0.00000360,-0.00000331,0.
 00000506,-0.00000801,-0.00000377,0.00001001,-0.00002212,0.00003512,0.0
 0002122,0.00001055,-0.00001791,-0.00000434,0.00001255,-0.00001371,0.00
 000139,-0.00000146,-0.00000543,0.00000331\\\@


 WE DON'T KNOW ONE MILLIONTH OF ONE PERCENT ABOUT
 ANYTHING.
                                     T. A. EDISON.
 Job cpu time:       0 days 22 hours 11 minutes  8.1 seconds.
 File lengths (MBytes):  RWF=   5939 Int=      0 D2E=      0 Chk=     45 Scr=      1
 Normal termination of Gaussian 09 at Mon Apr 17 13:28:02 2023.
