 Entering Gaussian System, Link 0=g09
 Input=au-1to3-ts-2-af12-c-term-level3-freq-se-new-p.com
 Output=au-1to3-ts-2-af12-c-term-level3-freq-se-new-p.log
 Initial command:
 /home/scr/programs/g09/l1.exe "/home/scr/helius/Gau-25041.inp" -scrdir="/home/scr/helius/"
 Entering Link 1 = /home/scr/programs/g09/l1.exe PID=     25043.
  
 Copyright (c) 1988,1990,1992,1993,1995,1998,2003,2009,2013,
            Gaussian, Inc.  All Rights Reserved.
  
 This is part of the Gaussian(R) 09 program.  It is based on
 the Gaussian(R) 03 system (copyright 2003, Gaussian, Inc.),
 the Gaussian(R) 98 system (copyright 1998, Gaussian, Inc.),
 the Gaussian(R) 94 system (copyright 1995, Gaussian, Inc.),
 the Gaussian 92(TM) system (copyright 1992, Gaussian, Inc.),
 the Gaussian 90(TM) system (copyright 1990, Gaussian, Inc.),
 the Gaussian 88(TM) system (copyright 1988, Gaussian, Inc.),
 the Gaussian 86(TM) system (copyright 1986, Carnegie Mellon
 University), and the Gaussian 82(TM) system (copyright 1983,
 Carnegie Mellon University). Gaussian is a federally registered
 trademark of Gaussian, Inc.
  
 This software contains proprietary and confidential information,
 including trade secrets, belonging to Gaussian, Inc.
  
 This software is provided under written license and may be
 used, copied, transmitted, or stored only in accord with that
 written license.
  
 The following legend is applicable only to US Government
 contracts under FAR:
  
                    RESTRICTED RIGHTS LEGEND
  
 Use, reproduction and disclosure by the US Government is
 subject to restrictions as set forth in subparagraphs (a)
 and (c) of the Commercial Computer Software - Restricted
 Rights clause in FAR 52.227-19.
  
 Gaussian, Inc.
 340 Quinnipiac St., Bldg. 40, Wallingford CT 06492
  
  
 ---------------------------------------------------------------
 Warning -- This program may not be used in any manner that
 competes with the business of Gaussian, Inc. or will provide
 assistance to any competitor of Gaussian, Inc.  The licensee
 of this program is prohibited from giving any competitor of
 Gaussian, Inc. access to this program.  By using this program,
 the user acknowledges that Gaussian, Inc. is engaged in the
 business of creating and licensing software in the field of
 computational chemistry and represents and warrants to the
 licensee that it is not a competitor of Gaussian, Inc. and that
 it will not use this program in any manner prohibited above.
 ---------------------------------------------------------------
  

 Cite this work as:
 Gaussian 09, Revision D.01,
 M. J. Frisch, G. W. Trucks, H. B. Schlegel, G. E. Scuseria, 
 M. A. Robb, J. R. Cheeseman, G. Scalmani, V. Barone, B. Mennucci, 
 G. A. Petersson, H. Nakatsuji, M. Caricato, X. Li, H. P. Hratchian, 
 A. F. Izmaylov, J. Bloino, G. Zheng, J. L. Sonnenberg, M. Hada, 
 M. Ehara, K. Toyota, R. Fukuda, J. Hasegawa, M. Ishida, T. Nakajima, 
 Y. Honda, O. Kitao, H. Nakai, T. Vreven, J. A. Montgomery, Jr., 
 J. E. Peralta, F. Ogliaro, M. Bearpark, J. J. Heyd, E. Brothers, 
 K. N. Kudin, V. N. Staroverov, T. Keith, R. Kobayashi, J. Normand, 
 K. Raghavachari, A. Rendell, J. C. Burant, S. S. Iyengar, J. Tomasi, 
 M. Cossi, N. Rega, J. M. Millam, M. Klene, J. E. Knox, J. B. Cross, 
 V. Bakken, C. Adamo, J. Jaramillo, R. Gomperts, R. E. Stratmann, 
 O. Yazyev, A. J. Austin, R. Cammi, C. Pomelli, J. W. Ochterski, 
 R. L. Martin, K. Morokuma, V. G. Zakrzewski, G. A. Voth, 
 P. Salvador, J. J. Dannenberg, S. Dapprich, A. D. Daniels, 
 O. Farkas, J. B. Foresman, J. V. Ortiz, J. Cioslowski, 
 and D. J. Fox, Gaussian, Inc., Wallingford CT, 2013.
 
 ******************************************
 Gaussian 09:  EM64L-G09RevD.01 24-Apr-2013
                20-Apr-2023 
 ******************************************
 %mem=30000MB
 %nprocshared=8
 Will use up to    8 processors via shared memory.
 ----------------------------------------
 # opt freq=noraman b3lyp/gen pseudo=read
 ----------------------------------------
 1/14=-1,18=20,19=15,26=3,38=1/1,3;
 2/9=110,12=2,17=6,18=5,40=1/2;
 3/5=7,11=2,16=1,17=8,25=1,30=1,71=1,74=-5/1,2,3;
 4//1;
 5/5=2,38=5/2;
 6/7=2,8=2,9=2,10=2,28=1/1;
 7//1,2,3,16;
 1/14=-1,18=20,19=15,26=3/3(2);
 2/9=110/2;
 99//99;
 2/9=110/2;
 3/5=7,6=1,11=2,16=1,17=8,25=1,30=1,71=1,74=-5,82=7/1,2,3;
 4/5=5,16=3,69=1/1;
 5/5=2,38=5/2;
 7//1,2,3,16;
 1/14=-1,18=20,19=15,26=3/3(-5);
 2/9=110/2;
 6/7=2,8=2,9=2,10=2,19=2,28=1/1;
 99/9=1/99;
 -------------------
 Title Card Required
 -------------------
 Symbolic Z-matrix:
 Charge =  0 Multiplicity = 1
 Au                   -2.69641  -0.02105  -0.32993 
 P                    -4.50993  -1.37435   0.58759 
 C                    -5.43952  -2.13673  -0.82898 
 H                    -6.14459  -2.85877  -0.41079 
 H                    -4.68277  -2.70428  -1.39774 
 C                    -5.75519  -0.60183   1.70835 
 H                    -6.5642   -1.32348   1.86628 
 H                    -6.17795   0.25565   1.15989 
 C                    -3.74869  -2.80078   1.4923 
 H                    -3.15917  -2.37797   2.3114 
 H                    -3.03339  -3.25551   0.78938 
 C                    -6.14377  -1.12101  -1.72965 
 H                    -6.92097  -0.55841  -1.19126 
 H                    -5.43929  -0.40885  -2.1643 
 H                    -6.63453  -1.64535  -2.5572 
 C                    -4.73181  -3.86054   2.02737 
 H                    -4.18189  -4.63022   2.56632 
 H                    -5.46688  -3.42528   2.72112 
 H                    -5.27874  -4.35365   1.22112 
 C                    -5.16071  -0.12832   3.03958 
 H                    -4.33954   0.5775    2.88009 
 H                    -5.93267   0.36665   3.63545 
 H                    -4.77671  -0.97258   3.63452 
 N                     5.68851  -2.86065   2.80655 
 C                     4.4833   -2.95619   1.9794 
 C                     4.73858  -2.42306   0.55455 
 O                     5.36048  -1.37799   0.40982 
 C                     3.37877  -2.12765   2.67786 
 O                     2.09305  -2.21369   2.06958 
 N                     4.31656  -3.13068  -0.54107 
 C                     3.53844  -4.35499  -0.60563 
 C                     2.11587  -4.2438   -0.03695 
 O                     1.82632  -4.82712   1.01445 
 N                     1.20639  -3.46391  -0.67374 
 C                     1.31053  -2.6341   -1.87 
 C                     2.04496  -1.28005  -1.70308 
 O                     2.60554  -0.8009   -2.68969 
 C                    -0.12276  -2.38694  -2.46392 
 S                    -1.65204  -2.31234  -1.29714 
 N                     1.94856  -0.66928  -0.50352 
 C                     1.93695   0.79474  -0.42189 
 C                     0.52394   1.34123  -0.16651 
 C                     2.85782   1.26337   0.72375 
 O                     2.43975   1.33251   1.87335 
 N                     4.12543   1.63157   0.39767 
 C                     4.82276   1.37132  -0.85357 
 C                     6.31026   1.34239  -0.5604 
 O                     6.82529   1.62544   0.5031 
 O                     7.01706   1.00103  -1.65525 
 H                     3.33995  -2.45613   3.72327 
 H                     3.65296  -1.06963   2.66245 
 H                     1.82644  -3.14589   2.0727 
 H                     4.16023  -4.00194   1.97054 
 H                     6.10252  -1.934     2.63146 
 H                     6.38053  -3.5319    2.48794 
 H                     4.01673  -5.15612  -0.03921 
 H                     3.51224  -4.67234  -1.65689 
 H                     4.48684  -2.63852  -1.41871 
 H                    -0.37467  -3.29047  -3.05874 
 H                    -0.08463  -1.50722  -3.14501 
 H                     1.86427  -3.16236  -2.65288 
 H                     0.29211  -3.41398  -0.20842 
 H                     0.56061   2.4349   -0.05273 
 H                     0.1548    0.91033   0.77279 
 H                     2.31439   1.14523  -1.38419 
 H                     1.61244  -1.18918   0.30822 
 H                     4.64529   2.16078  -1.59876 
 H                     4.54053   0.42033  -1.29974 
 H                     4.73552   1.82247   1.18785 
 H                     7.9562    1.00695  -1.39062 
 Se                   -0.72433   0.86275  -1.62943 
 S                    -3.58421   2.16625   0.48801 
 C                    -2.36058   3.42167  -0.04536 
 C                    -1.42159   3.89823   1.07478 
 H                    -2.94589   4.24231  -0.48361 
 H                    -1.77267   2.96998  -0.86765 
 H                    -1.96757   4.58461   1.75757 
 N                    -0.17341   4.48952   0.58823 
 C                    -0.36434   5.74928  -0.14694 
 C                     0.9809    6.26783  -0.65086 
 H                    -0.82991   6.52507   0.49733 
 H                    -1.02267   5.58075  -1.00601 
 H                     1.40218   5.55107  -1.37627 
 C                     0.7902    4.68948   1.67776 
 H                     0.39495   5.38364   2.44939 
 H                     0.99348   3.72503   2.15126 
 C                     2.10309   5.24356   1.12973 
 H                     2.7873    5.47336   1.95195 
 H                     2.58403   4.49876   0.47388 
 O                     1.90151   6.45931   0.42 
 H                     0.85766   7.2423   -1.13379 
 H                    -1.14081   3.03091   1.68545 
 

 GradGradGradGradGradGradGradGradGradGradGradGradGradGradGradGradGradGrad
 Berny optimization.
 Initialization pass.
                           ----------------------------
                           !    Initial Parameters    !
                           ! (Angstroms and Degrees)  !
 --------------------------                            --------------------------
 ! Name  Definition              Value          Derivative Info.                !
 --------------------------------------------------------------------------------
 ! R1    R(1,2)                  2.4417         estimate D2E/DX2                !
 ! R2    R(1,39)                 2.6974         estimate D2E/DX2                !
 ! R3    R(1,71)                 2.5217         estimate D2E/DX2                !
 ! R4    R(1,72)                 2.4983         estimate D2E/DX2                !
 ! R5    R(2,3)                  1.858          estimate D2E/DX2                !
 ! R6    R(2,6)                  1.8449         estimate D2E/DX2                !
 ! R7    R(2,9)                  1.8528         estimate D2E/DX2                !
 ! R8    R(3,4)                  1.0924         estimate D2E/DX2                !
 ! R9    R(3,5)                  1.1038         estimate D2E/DX2                !
 ! R10   R(3,12)                 1.5293         estimate D2E/DX2                !
 ! R11   R(6,7)                  1.0956         estimate D2E/DX2                !
 ! R12   R(6,8)                  1.1022         estimate D2E/DX2                !
 ! R13   R(6,20)                 1.5329         estimate D2E/DX2                !
 ! R14   R(9,10)                 1.0942         estimate D2E/DX2                !
 ! R15   R(9,11)                 1.1011         estimate D2E/DX2                !
 ! R16   R(9,16)                 1.5414         estimate D2E/DX2                !
 ! R17   R(12,13)                1.1002         estimate D2E/DX2                !
 ! R18   R(12,14)                1.092          estimate D2E/DX2                !
 ! R19   R(12,15)                1.0957         estimate D2E/DX2                !
 ! R20   R(16,17)                1.0887         estimate D2E/DX2                !
 ! R21   R(16,18)                1.1005         estimate D2E/DX2                !
 ! R22   R(16,19)                1.0919         estimate D2E/DX2                !
 ! R23   R(20,21)                1.0945         estimate D2E/DX2                !
 ! R24   R(20,22)                1.0936         estimate D2E/DX2                !
 ! R25   R(20,23)                1.1019         estimate D2E/DX2                !
 ! R26   R(24,25)                1.4649         estimate D2E/DX2                !
 ! R27   R(24,54)                1.0299         estimate D2E/DX2                !
 ! R28   R(24,55)                1.0154         estimate D2E/DX2                !
 ! R29   R(25,26)                1.5426         estimate D2E/DX2                !
 ! R30   R(25,28)                1.5473         estimate D2E/DX2                !
 ! R31   R(25,53)                1.0946         estimate D2E/DX2                !
 ! R32   R(26,27)                1.2247         estimate D2E/DX2                !
 ! R33   R(26,30)                1.3708         estimate D2E/DX2                !
 ! R34   R(28,29)                1.425          estimate D2E/DX2                !
 ! R35   R(28,50)                1.0965         estimate D2E/DX2                !
 ! R36   R(28,51)                1.0931         estimate D2E/DX2                !
 ! R37   R(29,52)                0.9696         estimate D2E/DX2                !
 ! R38   R(30,31)                1.4521         estimate D2E/DX2                !
 ! R39   R(30,58)                1.0205         estimate D2E/DX2                !
 ! R40   R(31,32)                1.5361         estimate D2E/DX2                !
 ! R41   R(31,56)                1.0915         estimate D2E/DX2                !
 ! R42   R(31,57)                1.0984         estimate D2E/DX2                !
 ! R43   R(32,33)                1.2367         estimate D2E/DX2                !
 ! R44   R(32,34)                1.3568         estimate D2E/DX2                !
 ! R45   R(34,35)                1.4596         estimate D2E/DX2                !
 ! R46   R(34,62)                1.0271         estimate D2E/DX2                !
 ! R47   R(35,36)                1.5494         estimate D2E/DX2                !
 ! R48   R(35,38)                1.571          estimate D2E/DX2                !
 ! R49   R(35,61)                1.0948         estimate D2E/DX2                !
 ! R50   R(36,37)                1.2318         estimate D2E/DX2                !
 ! R51   R(36,40)                1.3495         estimate D2E/DX2                !
 ! R52   R(38,39)                1.925          estimate D2E/DX2                !
 ! R53   R(38,59)                1.1107         estimate D2E/DX2                !
 ! R54   R(38,60)                1.1132         estimate D2E/DX2                !
 ! R55   R(40,41)                1.4663         estimate D2E/DX2                !
 ! R56   R(40,66)                1.0209         estimate D2E/DX2                !
 ! R57   R(41,42)                1.5364         estimate D2E/DX2                !
 ! R58   R(41,43)                1.5428         estimate D2E/DX2                !
 ! R59   R(41,65)                1.0915         estimate D2E/DX2                !
 ! R60   R(42,63)                1.1002         estimate D2E/DX2                !
 ! R61   R(42,64)                1.0974         estimate D2E/DX2                !
 ! R62   R(42,71)                1.9817         estimate D2E/DX2                !
 ! R63   R(43,44)                1.2252         estimate D2E/DX2                !
 ! R64   R(43,45)                1.3597         estimate D2E/DX2                !
 ! R65   R(45,46)                1.4559         estimate D2E/DX2                !
 ! R66   R(45,69)                1.0164         estimate D2E/DX2                !
 ! R67   R(46,47)                1.5164         estimate D2E/DX2                !
 ! R68   R(46,67)                1.1            estimate D2E/DX2                !
 ! R69   R(46,68)                1.0877         estimate D2E/DX2                !
 ! R70   R(47,48)                1.2151         estimate D2E/DX2                !
 ! R71   R(47,49)                1.3471         estimate D2E/DX2                !
 ! R72   R(49,70)                0.9757         estimate D2E/DX2                !
 ! R73   R(72,73)                1.8324         estimate D2E/DX2                !
 ! R74   R(73,74)                1.5374         estimate D2E/DX2                !
 ! R75   R(73,75)                1.0991         estimate D2E/DX2                !
 ! R76   R(73,76)                1.1072         estimate D2E/DX2                !
 ! R77   R(74,77)                1.1115         estimate D2E/DX2                !
 ! R78   R(74,78)                1.4643         estimate D2E/DX2                !
 ! R79   R(74,92)                1.0973         estimate D2E/DX2                !
 ! R80   R(78,79)                1.471          estimate D2E/DX2                !
 ! R81   R(78,84)                1.4682         estimate D2E/DX2                !
 ! R82   R(79,80)                1.5273         estimate D2E/DX2                !
 ! R83   R(79,81)                1.1107         estimate D2E/DX2                !
 ! R84   R(79,82)                1.0954         estimate D2E/DX2                !
 ! R85   R(80,83)                1.1034         estimate D2E/DX2                !
 ! R86   R(80,90)                1.4251         estimate D2E/DX2                !
 ! R87   R(80,91)                1.0945         estimate D2E/DX2                !
 ! R88   R(84,85)                1.1106         estimate D2E/DX2                !
 ! R89   R(84,86)                1.0935         estimate D2E/DX2                !
 ! R90   R(84,87)                1.5268         estimate D2E/DX2                !
 ! R91   R(87,88)                1.0941         estimate D2E/DX2                !
 ! R92   R(87,89)                1.1028         estimate D2E/DX2                !
 ! R93   R(87,90)                1.4221         estimate D2E/DX2                !
 ! A1    A(2,1,39)              87.2207         estimate D2E/DX2                !
 ! A2    A(2,1,72)              95.6405         estimate D2E/DX2                !
 ! A3    A(39,1,71)             79.0553         estimate D2E/DX2                !
 ! A4    A(71,1,72)             98.035          estimate D2E/DX2                !
 ! A5    A(1,2,3)              108.2116         estimate D2E/DX2                !
 ! A6    A(1,2,6)              119.8357         estimate D2E/DX2                !
 ! A7    A(1,2,9)              107.7603         estimate D2E/DX2                !
 ! A8    A(3,2,6)              107.2949         estimate D2E/DX2                !
 ! A9    A(3,2,9)              105.1862         estimate D2E/DX2                !
 ! A10   A(6,2,9)              107.6419         estimate D2E/DX2                !
 ! A11   A(2,3,4)              107.5938         estimate D2E/DX2                !
 ! A12   A(2,3,5)              105.1201         estimate D2E/DX2                !
 ! A13   A(2,3,12)             114.0097         estimate D2E/DX2                !
 ! A14   A(4,3,5)              107.4521         estimate D2E/DX2                !
 ! A15   A(4,3,12)             111.5438         estimate D2E/DX2                !
 ! A16   A(5,3,12)             110.7179         estimate D2E/DX2                !
 ! A17   A(2,6,7)              108.0705         estimate D2E/DX2                !
 ! A18   A(2,6,8)              106.4014         estimate D2E/DX2                !
 ! A19   A(2,6,20)             113.276          estimate D2E/DX2                !
 ! A20   A(7,6,8)              107.515          estimate D2E/DX2                !
 ! A21   A(7,6,20)             111.3872         estimate D2E/DX2                !
 ! A22   A(8,6,20)             109.9124         estimate D2E/DX2                !
 ! A23   A(2,9,10)             106.8224         estimate D2E/DX2                !
 ! A24   A(2,9,11)             105.85           estimate D2E/DX2                !
 ! A25   A(2,9,16)             115.8987         estimate D2E/DX2                !
 ! A26   A(10,9,11)            106.7054         estimate D2E/DX2                !
 ! A27   A(10,9,16)            110.454          estimate D2E/DX2                !
 ! A28   A(11,9,16)            110.6092         estimate D2E/DX2                !
 ! A29   A(3,12,13)            112.1316         estimate D2E/DX2                !
 ! A30   A(3,12,14)            111.745          estimate D2E/DX2                !
 ! A31   A(3,12,15)            109.4641         estimate D2E/DX2                !
 ! A32   A(13,12,14)           108.4838         estimate D2E/DX2                !
 ! A33   A(13,12,15)           107.3318         estimate D2E/DX2                !
 ! A34   A(14,12,15)           107.4826         estimate D2E/DX2                !
 ! A35   A(9,16,17)            109.6179         estimate D2E/DX2                !
 ! A36   A(9,16,18)            111.8965         estimate D2E/DX2                !
 ! A37   A(9,16,19)            111.9403         estimate D2E/DX2                !
 ! A38   A(17,16,18)           107.7538         estimate D2E/DX2                !
 ! A39   A(17,16,19)           107.4131         estimate D2E/DX2                !
 ! A40   A(18,16,19)           108.0297         estimate D2E/DX2                !
 ! A41   A(6,20,21)            111.3225         estimate D2E/DX2                !
 ! A42   A(6,20,22)            109.8305         estimate D2E/DX2                !
 ! A43   A(6,20,23)            111.5531         estimate D2E/DX2                !
 ! A44   A(21,20,22)           108.4895         estimate D2E/DX2                !
 ! A45   A(21,20,23)           108.138          estimate D2E/DX2                !
 ! A46   A(22,20,23)           107.3726         estimate D2E/DX2                !
 ! A47   A(25,24,54)           107.0628         estimate D2E/DX2                !
 ! A48   A(25,24,55)           109.9039         estimate D2E/DX2                !
 ! A49   A(54,24,55)           105.5145         estimate D2E/DX2                !
 ! A50   A(24,25,26)           111.276          estimate D2E/DX2                !
 ! A51   A(24,25,28)           107.3067         estimate D2E/DX2                !
 ! A52   A(24,25,53)           108.0427         estimate D2E/DX2                !
 ! A53   A(26,25,28)           110.4879         estimate D2E/DX2                !
 ! A54   A(26,25,53)           111.8122         estimate D2E/DX2                !
 ! A55   A(28,25,53)           107.7308         estimate D2E/DX2                !
 ! A56   A(25,26,27)           119.2163         estimate D2E/DX2                !
 ! A57   A(25,26,30)           120.5892         estimate D2E/DX2                !
 ! A58   A(27,26,30)           120.1565         estimate D2E/DX2                !
 ! A59   A(25,28,29)           114.7747         estimate D2E/DX2                !
 ! A60   A(25,28,50)           107.1716         estimate D2E/DX2                !
 ! A61   A(25,28,51)           109.4424         estimate D2E/DX2                !
 ! A62   A(29,28,50)           110.9135         estimate D2E/DX2                !
 ! A63   A(29,28,51)           106.1859         estimate D2E/DX2                !
 ! A64   A(50,28,51)           108.197          estimate D2E/DX2                !
 ! A65   A(28,29,52)           107.7455         estimate D2E/DX2                !
 ! A66   A(26,30,31)           129.4733         estimate D2E/DX2                !
 ! A67   A(26,30,58)           112.7693         estimate D2E/DX2                !
 ! A68   A(31,30,58)           117.2448         estimate D2E/DX2                !
 ! A69   A(30,31,32)           114.7579         estimate D2E/DX2                !
 ! A70   A(30,31,56)           111.1586         estimate D2E/DX2                !
 ! A71   A(30,31,57)           107.3927         estimate D2E/DX2                !
 ! A72   A(32,31,56)           105.4755         estimate D2E/DX2                !
 ! A73   A(32,31,57)           110.6802         estimate D2E/DX2                !
 ! A74   A(56,31,57)           107.1599         estimate D2E/DX2                !
 ! A75   A(31,32,33)           119.8296         estimate D2E/DX2                !
 ! A76   A(31,32,34)           119.2514         estimate D2E/DX2                !
 ! A77   A(33,32,34)           120.8753         estimate D2E/DX2                !
 ! A78   A(32,34,35)           131.576          estimate D2E/DX2                !
 ! A79   A(32,34,62)           114.3304         estimate D2E/DX2                !
 ! A80   A(35,34,62)           114.028          estimate D2E/DX2                !
 ! A81   A(34,35,36)           116.2544         estimate D2E/DX2                !
 ! A82   A(34,35,38)           109.5228         estimate D2E/DX2                !
 ! A83   A(34,35,61)           110.355          estimate D2E/DX2                !
 ! A84   A(36,35,38)           109.6146         estimate D2E/DX2                !
 ! A85   A(36,35,61)           105.0083         estimate D2E/DX2                !
 ! A86   A(38,35,61)           105.487          estimate D2E/DX2                !
 ! A87   A(35,36,37)           117.9938         estimate D2E/DX2                !
 ! A88   A(35,36,40)           117.22           estimate D2E/DX2                !
 ! A89   A(37,36,40)           124.6398         estimate D2E/DX2                !
 ! A90   A(35,38,39)           120.1145         estimate D2E/DX2                !
 ! A91   A(35,38,59)           106.3439         estimate D2E/DX2                !
 ! A92   A(35,38,60)           108.9276         estimate D2E/DX2                !
 ! A93   A(39,38,59)           100.1341         estimate D2E/DX2                !
 ! A94   A(39,38,60)           111.5566         estimate D2E/DX2                !
 ! A95   A(59,38,60)           108.8423         estimate D2E/DX2                !
 ! A96   A(1,39,38)            123.9063         estimate D2E/DX2                !
 ! A97   A(36,40,41)           120.1266         estimate D2E/DX2                !
 ! A98   A(36,40,66)           119.987          estimate D2E/DX2                !
 ! A99   A(41,40,66)           117.4896         estimate D2E/DX2                !
 ! A100  A(40,41,42)           111.8187         estimate D2E/DX2                !
 ! A101  A(40,41,43)           109.8706         estimate D2E/DX2                !
 ! A102  A(40,41,65)           105.5922         estimate D2E/DX2                !
 ! A103  A(42,41,43)           108.5106         estimate D2E/DX2                !
 ! A104  A(42,41,65)           110.5099         estimate D2E/DX2                !
 ! A105  A(43,41,65)           110.5332         estimate D2E/DX2                !
 ! A106  A(41,42,63)           109.8844         estimate D2E/DX2                !
 ! A107  A(41,42,64)           108.1784         estimate D2E/DX2                !
 ! A108  A(41,42,71)           111.7597         estimate D2E/DX2                !
 ! A109  A(63,42,64)           108.2421         estimate D2E/DX2                !
 ! A110  A(63,42,71)           109.7164         estimate D2E/DX2                !
 ! A111  A(64,42,71)           108.9766         estimate D2E/DX2                !
 ! A112  A(41,43,44)           120.6795         estimate D2E/DX2                !
 ! A113  A(41,43,45)           117.4291         estimate D2E/DX2                !
 ! A114  A(44,43,45)           121.8602         estimate D2E/DX2                !
 ! A115  A(43,45,46)           127.1742         estimate D2E/DX2                !
 ! A116  A(43,45,69)           115.0891         estimate D2E/DX2                !
 ! A117  A(46,45,69)           114.4709         estimate D2E/DX2                !
 ! A118  A(45,46,47)           107.8845         estimate D2E/DX2                !
 ! A119  A(45,46,67)           112.1257         estimate D2E/DX2                !
 ! A120  A(45,46,68)           112.615          estimate D2E/DX2                !
 ! A121  A(47,46,67)           107.6335         estimate D2E/DX2                !
 ! A122  A(47,46,68)           108.491          estimate D2E/DX2                !
 ! A123  A(67,46,68)           107.9228         estimate D2E/DX2                !
 ! A124  A(46,47,48)           125.4903         estimate D2E/DX2                !
 ! A125  A(46,47,49)           111.2464         estimate D2E/DX2                !
 ! A126  A(48,47,49)           123.2282         estimate D2E/DX2                !
 ! A127  A(47,49,70)           106.4415         estimate D2E/DX2                !
 ! A128  A(1,71,42)            101.3501         estimate D2E/DX2                !
 ! A129  A(1,72,73)            105.4997         estimate D2E/DX2                !
 ! A130  A(72,73,74)           114.0883         estimate D2E/DX2                !
 ! A131  A(72,73,75)           105.7822         estimate D2E/DX2                !
 ! A132  A(72,73,76)           106.9331         estimate D2E/DX2                !
 ! A133  A(74,73,75)           112.6018         estimate D2E/DX2                !
 ! A134  A(74,73,76)           110.076          estimate D2E/DX2                !
 ! A135  A(75,73,76)           106.9324         estimate D2E/DX2                !
 ! A136  A(73,74,77)           109.8146         estimate D2E/DX2                !
 ! A137  A(73,74,78)           113.809          estimate D2E/DX2                !
 ! A138  A(73,74,92)           108.4675         estimate D2E/DX2                !
 ! A139  A(77,74,78)           111.9292         estimate D2E/DX2                !
 ! A140  A(77,74,92)           105.7792         estimate D2E/DX2                !
 ! A141  A(78,74,92)           106.6175         estimate D2E/DX2                !
 ! A142  A(74,78,79)           113.6545         estimate D2E/DX2                !
 ! A143  A(74,78,84)           111.5834         estimate D2E/DX2                !
 ! A144  A(79,78,84)           109.8417         estimate D2E/DX2                !
 ! A145  A(78,79,80)           109.9585         estimate D2E/DX2                !
 ! A146  A(78,79,81)           111.2642         estimate D2E/DX2                !
 ! A147  A(78,79,82)           109.7678         estimate D2E/DX2                !
 ! A148  A(80,79,81)           108.8712         estimate D2E/DX2                !
 ! A149  A(80,79,82)           108.8355         estimate D2E/DX2                !
 ! A150  A(81,79,82)           108.0872         estimate D2E/DX2                !
 ! A151  A(79,80,83)           109.4308         estimate D2E/DX2                !
 ! A152  A(79,80,90)           111.5116         estimate D2E/DX2                !
 ! A153  A(79,80,91)           110.4072         estimate D2E/DX2                !
 ! A154  A(83,80,90)           109.552          estimate D2E/DX2                !
 ! A155  A(83,80,91)           109.3457         estimate D2E/DX2                !
 ! A156  A(90,80,91)           106.5381         estimate D2E/DX2                !
 ! A157  A(78,84,85)           111.5395         estimate D2E/DX2                !
 ! A158  A(78,84,86)           108.8583         estimate D2E/DX2                !
 ! A159  A(78,84,87)           110.3306         estimate D2E/DX2                !
 ! A160  A(85,84,86)           108.4557         estimate D2E/DX2                !
 ! A161  A(85,84,87)           109.1828         estimate D2E/DX2                !
 ! A162  A(86,84,87)           108.4004         estimate D2E/DX2                !
 ! A163  A(84,87,88)           110.1358         estimate D2E/DX2                !
 ! A164  A(84,87,89)           110.083          estimate D2E/DX2                !
 ! A165  A(84,87,90)           111.5613         estimate D2E/DX2                !
 ! A166  A(88,87,89)           108.425          estimate D2E/DX2                !
 ! A167  A(88,87,90)           106.5077         estimate D2E/DX2                !
 ! A168  A(89,87,90)           110.0223         estimate D2E/DX2                !
 ! A169  A(80,90,87)           110.5922         estimate D2E/DX2                !
 ! A170  L(2,1,71,72,-1)       193.6756         estimate D2E/DX2                !
 ! A171  L(39,1,72,71,-1)      177.0903         estimate D2E/DX2                !
 ! A172  L(2,1,71,72,-2)       184.4134         estimate D2E/DX2                !
 ! A173  L(39,1,72,71,-2)      179.4623         estimate D2E/DX2                !
 ! D1    D(39,1,2,3)           -64.1921         estimate D2E/DX2                !
 ! D2    D(39,1,2,6)           172.4763         estimate D2E/DX2                !
 ! D3    D(39,1,2,9)            49.0708         estimate D2E/DX2                !
 ! D4    D(72,1,2,3)           115.0568         estimate D2E/DX2                !
 ! D5    D(72,1,2,6)            -8.2747         estimate D2E/DX2                !
 ! D6    D(72,1,2,9)          -131.6802         estimate D2E/DX2                !
 ! D7    D(3,2,71,42)         -167.4825         estimate D2E/DX2                !
 ! D8    D(6,2,71,42)           68.5416         estimate D2E/DX2                !
 ! D9    D(9,2,71,42)          -57.6365         estimate D2E/DX2                !
 ! D10   D(2,1,39,38)          173.3271         estimate D2E/DX2                !
 ! D11   D(71,1,39,38)          -2.4033         estimate D2E/DX2                !
 ! D12   D(38,39,72,73)         -7.8898         estimate D2E/DX2                !
 ! D13   D(39,1,71,42)        -105.873          estimate D2E/DX2                !
 ! D14   D(72,1,71,42)          74.6646         estimate D2E/DX2                !
 ! D15   D(2,1,72,73)          178.8562         estimate D2E/DX2                !
 ! D16   D(71,1,72,73)          -5.5572         estimate D2E/DX2                !
 ! D17   D(1,2,3,4)            171.3102         estimate D2E/DX2                !
 ! D18   D(1,2,3,5)             57.0057         estimate D2E/DX2                !
 ! D19   D(1,2,3,12)           -64.4285         estimate D2E/DX2                !
 ! D20   D(6,2,3,4)            -58.0732         estimate D2E/DX2                !
 ! D21   D(6,2,3,5)           -172.3778         estimate D2E/DX2                !
 ! D22   D(6,2,3,12)            66.1881         estimate D2E/DX2                !
 ! D23   D(9,2,3,4)             56.3466         estimate D2E/DX2                !
 ! D24   D(9,2,3,5)            -57.958          estimate D2E/DX2                !
 ! D25   D(9,2,3,12)          -179.3921         estimate D2E/DX2                !
 ! D26   D(1,2,6,7)            170.5127         estimate D2E/DX2                !
 ! D27   D(1,2,6,8)             55.2963         estimate D2E/DX2                !
 ! D28   D(1,2,6,20)           -65.5745         estimate D2E/DX2                !
 ! D29   D(3,2,6,7)             46.7386         estimate D2E/DX2                !
 ! D30   D(3,2,6,8)            -68.4778         estimate D2E/DX2                !
 ! D31   D(3,2,6,20)           170.6514         estimate D2E/DX2                !
 ! D32   D(9,2,6,7)            -66.0246         estimate D2E/DX2                !
 ! D33   D(9,2,6,8)            178.7591         estimate D2E/DX2                !
 ! D34   D(9,2,6,20)            57.8883         estimate D2E/DX2                !
 ! D35   D(1,2,9,10)            62.4723         estimate D2E/DX2                !
 ! D36   D(1,2,9,11)           -50.9815         estimate D2E/DX2                !
 ! D37   D(1,2,9,16)          -173.9795         estimate D2E/DX2                !
 ! D38   D(3,2,9,10)           177.7485         estimate D2E/DX2                !
 ! D39   D(3,2,9,11)            64.2946         estimate D2E/DX2                !
 ! D40   D(3,2,9,16)           -58.7033         estimate D2E/DX2                !
 ! D41   D(6,2,9,10)           -68.0736         estimate D2E/DX2                !
 ! D42   D(6,2,9,11)           178.4726         estimate D2E/DX2                !
 ! D43   D(6,2,9,16)            55.4746         estimate D2E/DX2                !
 ! D44   D(2,3,12,13)          -63.1041         estimate D2E/DX2                !
 ! D45   D(2,3,12,14)           58.9479         estimate D2E/DX2                !
 ! D46   D(2,3,12,15)          177.8948         estimate D2E/DX2                !
 ! D47   D(4,3,12,13)           59.0099         estimate D2E/DX2                !
 ! D48   D(4,3,12,14)         -178.938          estimate D2E/DX2                !
 ! D49   D(4,3,12,15)          -59.9912         estimate D2E/DX2                !
 ! D50   D(5,3,12,13)          178.6169         estimate D2E/DX2                !
 ! D51   D(5,3,12,14)          -59.3311         estimate D2E/DX2                !
 ! D52   D(5,3,12,15)           59.6157         estimate D2E/DX2                !
 ! D53   D(2,6,20,21)           56.798          estimate D2E/DX2                !
 ! D54   D(2,6,20,22)          176.974          estimate D2E/DX2                !
 ! D55   D(2,6,20,23)          -64.0981         estimate D2E/DX2                !
 ! D56   D(7,6,20,21)          178.8787         estimate D2E/DX2                !
 ! D57   D(7,6,20,22)          -60.9453         estimate D2E/DX2                !
 ! D58   D(7,6,20,23)           57.9826         estimate D2E/DX2                !
 ! D59   D(8,6,20,21)          -62.0674         estimate D2E/DX2                !
 ! D60   D(8,6,20,22)           58.1086         estimate D2E/DX2                !
 ! D61   D(8,6,20,23)          177.0365         estimate D2E/DX2                !
 ! D62   D(2,9,16,17)         -178.1516         estimate D2E/DX2                !
 ! D63   D(2,9,16,18)          -58.6696         estimate D2E/DX2                !
 ! D64   D(2,9,16,19)           62.7649         estimate D2E/DX2                !
 ! D65   D(10,9,16,17)         -56.5198         estimate D2E/DX2                !
 ! D66   D(10,9,16,18)          62.9622         estimate D2E/DX2                !
 ! D67   D(10,9,16,19)        -175.6033         estimate D2E/DX2                !
 ! D68   D(11,9,16,17)          61.3866         estimate D2E/DX2                !
 ! D69   D(11,9,16,18)        -179.1314         estimate D2E/DX2                !
 ! D70   D(11,9,16,19)         -57.697          estimate D2E/DX2                !
 ! D71   D(54,24,25,26)         43.9846         estimate D2E/DX2                !
 ! D72   D(54,24,25,28)        -76.9965         estimate D2E/DX2                !
 ! D73   D(54,24,25,53)        167.0919         estimate D2E/DX2                !
 ! D74   D(55,24,25,26)        -70.1389         estimate D2E/DX2                !
 ! D75   D(55,24,25,28)        168.8799         estimate D2E/DX2                !
 ! D76   D(55,24,25,53)         52.9684         estimate D2E/DX2                !
 ! D77   D(24,25,26,27)        -44.122          estimate D2E/DX2                !
 ! D78   D(24,25,26,30)        133.6397         estimate D2E/DX2                !
 ! D79   D(28,25,26,27)         74.9757         estimate D2E/DX2                !
 ! D80   D(28,25,26,30)       -107.2627         estimate D2E/DX2                !
 ! D81   D(53,25,26,27)       -165.043          estimate D2E/DX2                !
 ! D82   D(53,25,26,30)         12.7187         estimate D2E/DX2                !
 ! D83   D(24,25,28,29)       -174.3681         estimate D2E/DX2                !
 ! D84   D(24,25,28,50)        -50.7193         estimate D2E/DX2                !
 ! D85   D(24,25,28,51)         66.3904         estimate D2E/DX2                !
 ! D86   D(26,25,28,29)         64.1548         estimate D2E/DX2                !
 ! D87   D(26,25,28,50)       -172.1964         estimate D2E/DX2                !
 ! D88   D(26,25,28,51)        -55.0866         estimate D2E/DX2                !
 ! D89   D(53,25,28,29)        -58.2503         estimate D2E/DX2                !
 ! D90   D(53,25,28,50)         65.3985         estimate D2E/DX2                !
 ! D91   D(53,25,28,51)       -177.4918         estimate D2E/DX2                !
 ! D92   D(25,26,30,31)          4.4287         estimate D2E/DX2                !
 ! D93   D(25,26,30,58)        175.8645         estimate D2E/DX2                !
 ! D94   D(27,26,30,31)       -177.8307         estimate D2E/DX2                !
 ! D95   D(27,26,30,58)         -6.3949         estimate D2E/DX2                !
 ! D96   D(25,28,29,52)         59.046          estimate D2E/DX2                !
 ! D97   D(50,28,29,52)        -62.5858         estimate D2E/DX2                !
 ! D98   D(51,28,29,52)       -179.9101         estimate D2E/DX2                !
 ! D99   D(26,30,31,32)         63.3535         estimate D2E/DX2                !
 ! D100  D(26,30,31,56)        -56.2219         estimate D2E/DX2                !
 ! D101  D(26,30,31,57)       -173.143          estimate D2E/DX2                !
 ! D102  D(58,30,31,32)       -107.7617         estimate D2E/DX2                !
 ! D103  D(58,30,31,56)        132.6628         estimate D2E/DX2                !
 ! D104  D(58,30,31,57)         15.7418         estimate D2E/DX2                !
 ! D105  D(30,31,32,33)       -110.5883         estimate D2E/DX2                !
 ! D106  D(30,31,32,34)         67.0286         estimate D2E/DX2                !
 ! D107  D(56,31,32,33)         12.1036         estimate D2E/DX2                !
 ! D108  D(56,31,32,34)       -170.2795         estimate D2E/DX2                !
 ! D109  D(57,31,32,33)        127.6811         estimate D2E/DX2                !
 ! D110  D(57,31,32,34)        -54.702          estimate D2E/DX2                !
 ! D111  D(31,32,34,35)         -0.8153         estimate D2E/DX2                !
 ! D112  D(31,32,34,62)       -177.6414         estimate D2E/DX2                !
 ! D113  D(33,32,34,35)        176.776          estimate D2E/DX2                !
 ! D114  D(33,32,34,62)         -0.0501         estimate D2E/DX2                !
 ! D115  D(32,34,35,36)        -76.2442         estimate D2E/DX2                !
 ! D116  D(32,34,35,38)        158.8643         estimate D2E/DX2                !
 ! D117  D(32,34,35,61)         43.1603         estimate D2E/DX2                !
 ! D118  D(62,34,35,36)        100.5894         estimate D2E/DX2                !
 ! D119  D(62,34,35,38)        -24.3021         estimate D2E/DX2                !
 ! D120  D(62,34,35,61)       -140.0061         estimate D2E/DX2                !
 ! D121  D(34,35,36,37)        152.5031         estimate D2E/DX2                !
 ! D122  D(34,35,36,40)        -31.6892         estimate D2E/DX2                !
 ! D123  D(38,35,36,37)        -82.6522         estimate D2E/DX2                !
 ! D124  D(38,35,36,40)         93.1554         estimate D2E/DX2                !
 ! D125  D(61,35,36,37)         30.2416         estimate D2E/DX2                !
 ! D126  D(61,35,36,40)       -153.9507         estimate D2E/DX2                !
 ! D127  D(34,35,38,39)         30.9682         estimate D2E/DX2                !
 ! D128  D(34,35,38,59)        -81.4935         estimate D2E/DX2                !
 ! D129  D(34,35,38,60)        161.3537         estimate D2E/DX2                !
 ! D130  D(36,35,38,39)        -97.6855         estimate D2E/DX2                !
 ! D131  D(36,35,38,59)        149.8529         estimate D2E/DX2                !
 ! D132  D(36,35,38,60)         32.7001         estimate D2E/DX2                !
 ! D133  D(61,35,38,39)        149.7321         estimate D2E/DX2                !
 ! D134  D(61,35,38,59)         37.2705         estimate D2E/DX2                !
 ! D135  D(61,35,38,60)        -79.8823         estimate D2E/DX2                !
 ! D136  D(35,36,40,41)       -147.019          estimate D2E/DX2                !
 ! D137  D(35,36,40,66)         14.974          estimate D2E/DX2                !
 ! D138  D(37,36,40,41)         28.4811         estimate D2E/DX2                !
 ! D139  D(37,36,40,66)       -169.526          estimate D2E/DX2                !
 ! D140  D(35,38,39,1)          95.7093         estimate D2E/DX2                !
 ! D141  D(59,38,39,1)        -148.5601         estimate D2E/DX2                !
 ! D142  D(60,38,39,1)         -33.5126         estimate D2E/DX2                !
 ! D143  D(36,40,41,42)        103.5322         estimate D2E/DX2                !
 ! D144  D(36,40,41,43)       -135.9158         estimate D2E/DX2                !
 ! D145  D(36,40,41,65)        -16.7027         estimate D2E/DX2                !
 ! D146  D(66,40,41,42)        -58.9002         estimate D2E/DX2                !
 ! D147  D(66,40,41,43)         61.6518         estimate D2E/DX2                !
 ! D148  D(66,40,41,65)       -179.1351         estimate D2E/DX2                !
 ! D149  D(40,41,42,63)        176.7195         estimate D2E/DX2                !
 ! D150  D(40,41,42,64)         58.7416         estimate D2E/DX2                !
 ! D151  D(40,41,42,71)        -61.2314         estimate D2E/DX2                !
 ! D152  D(43,41,42,63)         55.378          estimate D2E/DX2                !
 ! D153  D(43,41,42,64)        -62.5999         estimate D2E/DX2                !
 ! D154  D(43,41,42,71)        177.4271         estimate D2E/DX2                !
 ! D155  D(65,41,42,63)        -65.9652         estimate D2E/DX2                !
 ! D156  D(65,41,42,64)        176.0569         estimate D2E/DX2                !
 ! D157  D(65,41,42,71)         56.0839         estimate D2E/DX2                !
 ! D158  D(40,41,43,44)        -85.5932         estimate D2E/DX2                !
 ! D159  D(40,41,43,45)         96.4014         estimate D2E/DX2                !
 ! D160  D(42,41,43,44)         36.9383         estimate D2E/DX2                !
 ! D161  D(42,41,43,45)       -141.067          estimate D2E/DX2                !
 ! D162  D(65,41,43,44)        158.2672         estimate D2E/DX2                !
 ! D163  D(65,41,43,45)        -19.7381         estimate D2E/DX2                !
 ! D164  D(41,42,71,1)         131.8298         estimate D2E/DX2                !
 ! D165  D(63,42,71,1)        -106.0246         estimate D2E/DX2                !
 ! D166  D(64,42,71,1)          12.3265         estimate D2E/DX2                !
 ! D167  D(41,43,45,46)        -14.4172         estimate D2E/DX2                !
 ! D168  D(41,43,45,69)       -172.7089         estimate D2E/DX2                !
 ! D169  D(44,43,45,46)        167.6026         estimate D2E/DX2                !
 ! D170  D(44,43,45,69)          9.3109         estimate D2E/DX2                !
 ! D171  D(43,45,46,47)       -153.2977         estimate D2E/DX2                !
 ! D172  D(43,45,46,67)         88.3551         estimate D2E/DX2                !
 ! D173  D(43,45,46,68)        -33.5989         estimate D2E/DX2                !
 ! D174  D(69,45,46,47)          5.1073         estimate D2E/DX2                !
 ! D175  D(69,45,46,67)       -113.2399         estimate D2E/DX2                !
 ! D176  D(69,45,46,68)        124.8061         estimate D2E/DX2                !
 ! D177  D(45,46,47,48)         -6.9738         estimate D2E/DX2                !
 ! D178  D(45,46,47,49)        175.1318         estimate D2E/DX2                !
 ! D179  D(67,46,47,48)        114.2143         estimate D2E/DX2                !
 ! D180  D(67,46,47,49)        -63.6801         estimate D2E/DX2                !
 ! D181  D(68,46,47,48)       -129.2482         estimate D2E/DX2                !
 ! D182  D(68,46,47,49)         52.8575         estimate D2E/DX2                !
 ! D183  D(46,47,49,70)        179.8186         estimate D2E/DX2                !
 ! D184  D(48,47,49,70)          1.8681         estimate D2E/DX2                !
 ! D185  D(1,72,73,74)        -102.0609         estimate D2E/DX2                !
 ! D186  D(1,72,73,75)         133.6176         estimate D2E/DX2                !
 ! D187  D(1,72,73,76)          19.8882         estimate D2E/DX2                !
 ! D188  D(72,73,74,77)        -75.0134         estimate D2E/DX2                !
 ! D189  D(72,73,74,78)        158.6255         estimate D2E/DX2                !
 ! D190  D(72,73,74,92)         40.1415         estimate D2E/DX2                !
 ! D191  D(75,73,74,77)         45.5723         estimate D2E/DX2                !
 ! D192  D(75,73,74,78)        -80.7888         estimate D2E/DX2                !
 ! D193  D(75,73,74,92)        160.7272         estimate D2E/DX2                !
 ! D194  D(76,73,74,77)        164.7832         estimate D2E/DX2                !
 ! D195  D(76,73,74,78)         38.4221         estimate D2E/DX2                !
 ! D196  D(76,73,74,92)        -80.0619         estimate D2E/DX2                !
 ! D197  D(73,74,78,79)         66.0703         estimate D2E/DX2                !
 ! D198  D(73,74,78,84)       -169.0556         estimate D2E/DX2                !
 ! D199  D(77,74,78,79)        -59.1728         estimate D2E/DX2                !
 ! D200  D(77,74,78,84)         65.7013         estimate D2E/DX2                !
 ! D201  D(92,74,78,79)       -174.3912         estimate D2E/DX2                !
 ! D202  D(92,74,78,84)        -49.517          estimate D2E/DX2                !
 ! D203  D(74,78,79,80)       -178.2707         estimate D2E/DX2                !
 ! D204  D(74,78,79,81)         61.0272         estimate D2E/DX2                !
 ! D205  D(74,78,79,82)        -58.5679         estimate D2E/DX2                !
 ! D206  D(84,78,79,80)         55.9263         estimate D2E/DX2                !
 ! D207  D(84,78,79,81)        -64.7758         estimate D2E/DX2                !
 ! D208  D(84,78,79,82)        175.6291         estimate D2E/DX2                !
 ! D209  D(74,78,84,85)        -61.1865         estimate D2E/DX2                !
 ! D210  D(74,78,84,86)         58.4478         estimate D2E/DX2                !
 ! D211  D(74,78,84,87)        177.2821         estimate D2E/DX2                !
 ! D212  D(79,78,84,85)         65.7875         estimate D2E/DX2                !
 ! D213  D(79,78,84,86)       -174.5782         estimate D2E/DX2                !
 ! D214  D(79,78,84,87)        -55.7439         estimate D2E/DX2                !
 ! D215  D(78,79,80,83)         63.8361         estimate D2E/DX2                !
 ! D216  D(78,79,80,90)        -57.5286         estimate D2E/DX2                !
 ! D217  D(78,79,80,91)       -175.7636         estimate D2E/DX2                !
 ! D218  D(81,79,80,83)       -174.0305         estimate D2E/DX2                !
 ! D219  D(81,79,80,90)         64.6048         estimate D2E/DX2                !
 ! D220  D(81,79,80,91)        -53.6303         estimate D2E/DX2                !
 ! D221  D(82,79,80,83)        -56.4326         estimate D2E/DX2                !
 ! D222  D(82,79,80,90)       -177.7973         estimate D2E/DX2                !
 ! D223  D(82,79,80,91)         63.9676         estimate D2E/DX2                !
 ! D224  D(79,80,90,87)         58.1907         estimate D2E/DX2                !
 ! D225  D(83,80,90,87)        -63.1035         estimate D2E/DX2                !
 ! D226  D(91,80,90,87)        178.7218         estimate D2E/DX2                !
 ! D227  D(78,84,87,88)        175.0802         estimate D2E/DX2                !
 ! D228  D(78,84,87,89)        -65.4157         estimate D2E/DX2                !
 ! D229  D(78,84,87,90)         57.0267         estimate D2E/DX2                !
 ! D230  D(85,84,87,88)         52.161          estimate D2E/DX2                !
 ! D231  D(85,84,87,89)        171.6651         estimate D2E/DX2                !
 ! D232  D(85,84,87,90)        -65.8925         estimate D2E/DX2                !
 ! D233  D(86,84,87,88)        -65.8068         estimate D2E/DX2                !
 ! D234  D(86,84,87,89)         53.6973         estimate D2E/DX2                !
 ! D235  D(86,84,87,90)        176.1397         estimate D2E/DX2                !
 ! D236  D(84,87,90,80)        -57.8103         estimate D2E/DX2                !
 ! D237  D(88,87,90,80)       -178.0199         estimate D2E/DX2                !
 ! D238  D(89,87,90,80)         64.6669         estimate D2E/DX2                !
 --------------------------------------------------------------------------------
 Trust Radius=3.00D-01 FncErr=1.00D-07 GrdErr=1.00D-06
 Number of steps in this run=    514 maximum allowed number of steps=    552.
 GradGradGradGradGradGradGradGradGradGradGradGradGradGradGradGradGradGrad

 Stoichiometry    C25H48AuN6O8PS2Se
 Framework group  C1[X(C25H48AuN6O8PS2Se)]
 Deg. of freedom   270
 Full point group                 C1      NOp   1
 Largest Abelian subgroup         C1      NOp   1
 Largest concise Abelian subgroup C1      NOp   1
                         Standard orientation:                         
 ---------------------------------------------------------------------
 Center     Atomic      Atomic             Coordinates (Angstroms)
 Number     Number       Type             X           Y           Z
 ---------------------------------------------------------------------
      1         79           0       -2.692881    0.016316   -0.321764
      2         15           0       -4.520928   -1.315674    0.598090
      3          6           0       -5.466953   -2.059374   -0.817521
      4          1           0       -6.180111   -2.773361   -0.399213
      5          1           0       -4.720527   -2.634941   -1.391834
      6          6           0       -5.750642   -0.530711    1.727344
      7          1           0       -6.568835   -1.241815    1.885843
      8          1           0       -6.163888    0.334743    1.184184
      9          6           0       -3.775550   -2.756144    1.493727
     10          1           0       -3.176772   -2.344840    2.311977
     11          1           0       -3.069580   -3.217769    0.785890
     12          6           0       -6.160996   -1.030377   -1.711017
     13          1           0       -6.928064   -0.459366   -1.167004
     14          1           0       -5.448631   -0.326193   -2.145824
     15          1           0       -6.662451   -1.544522   -2.538560
     16          6           0       -4.770870   -3.804467    2.028742
     17          1           0       -4.229315   -4.583841    2.562196
     18          1           0       -5.496920   -3.361994    2.727417
     19          1           0       -5.327972   -4.286696    1.222875
     20          6           0       -5.144032   -0.070890    3.057896
     21          1           0       -4.313907    0.624221    2.897720
     22          1           0       -5.906557    0.432190    3.659091
     23          1           0       -4.769157   -0.922784    3.647749
     24          7           0        5.665448   -2.951163    2.766935
     25          6           0        4.455521   -3.026725    1.944625
     26          6           0        4.712043   -2.491308    0.520854
     27          8           0        5.347653   -1.454304    0.377671
     28          6           0        3.365496   -2.185957    2.651197
     29          8           0        2.076132   -2.251809    2.048132
     30          7           0        4.275649   -3.188557   -0.575791
     31          6           0        3.480477   -4.401774   -0.641936
     32          6           0        2.062012   -4.273373   -0.066672
     33          8           0        1.768945   -4.856966    0.983601
     34          7           0        1.160646   -3.478446   -0.696370
     35          6           0        1.271101   -2.645237   -1.889695
     36          6           0        2.024816   -1.302116   -1.720472
     37          8           0        2.587720   -0.826671   -2.707553
     38          6           0       -0.161164   -2.375961   -2.476415
     39         16           0       -1.684282   -2.285123   -1.302743
     40          7           0        1.941944   -0.695001   -0.518050
     41          6           0        1.950842    0.768689   -0.430446
     42          6           0        0.546586    1.333508   -0.166750
     43          6           0        2.882949    1.219905    0.713090
     44          8           0        2.470780    1.290068    1.864757
     45          7           0        4.154107    1.571978    0.383035
     46          6           0        4.842451    1.307306   -0.872255
     47          6           0        6.330646    1.256719   -0.585631
     48          8           0        6.854056    1.528288    0.476773
     49          8           0        7.028008    0.910173   -1.684897
     50          1           0        3.326611   -2.518153    3.695424
     51          1           0        3.654159   -1.131746    2.638880
     52          1           0        1.796722   -3.180254    2.048636
     53          1           0        4.118050   -4.067895    1.932927
     54          1           0        6.091430   -2.029588    2.593811
     55          1           0        6.346797   -3.630553    2.442632
     56          1           0        3.950106   -5.211729   -0.080835
     57          1           0        3.445435   -4.714420   -1.694352
     58          1           0        4.448943   -2.695185   -1.452157
     59          1           0       -0.428022   -3.273490   -3.073797
     60          1           0       -0.113832   -1.494056   -3.154102
     61          1           0        1.814178   -3.177840   -2.677092
     62          1           0        0.249138   -3.417859   -0.226901
     63          1           0        0.598803    2.426091   -0.048703
     64          1           0        0.175565    0.903871    0.772384
     65          1           0        2.328968    1.117904   -1.392941
     66          1           0        1.602167   -1.213557    0.293026
     67          1           0        4.672687    2.102184   -1.613463
     68          1           0        4.545250    0.362119   -1.321046
     69          1           0        4.770130    1.751227    1.171338
     70          1           0        7.968259    0.902092   -1.424305
     71         34           0       -0.714372    0.878241   -1.626190
     72         16           0       -3.546985    2.212240    0.508843
     73          6           0       -2.308474    3.452897   -0.024725
     74          6           0       -1.358235    3.911892    1.093271
     75          1           0       -2.884291    4.283298   -0.457117
     76          1           0       -1.730349    2.996543   -0.851363
     77          1           0       -1.891803    4.602907    1.781186
     78          7           0       -0.104120    4.487959    0.603726
     79          6           0       -0.280825    5.753229   -0.125506
     80          6           0        1.069269    6.255300   -0.633133
     81          1           0       -0.732916    6.532702    0.523901
     82          1           0       -0.945067    5.597297   -0.982400
     83          1           0        1.477540    5.535798   -1.363252
     84          6           0        0.866781    4.670178    1.689883
     85          1           0        0.484428    5.366530    2.466020
     86          1           0        1.058785    3.701089    2.158593
     87          6           0        2.184829    5.208400    1.138435
     88          1           0        2.875644    5.425392    1.958617
     89          1           0        2.652667    4.459747    0.477500
     90          8           0        1.996982    6.429709    0.434510
     91          1           0        0.957397    7.233347   -1.111572
     92          1           0       -1.086829    3.038295    1.699207
 ---------------------------------------------------------------------
 Rotational constants (GHZ):      0.0661848      0.0410468      0.0300902
 General basis read from cards:  (5D, 7F)
 ======================================================================================================
                                       Pseudopotential Parameters
 ======================================================================================================
  Center     Atomic      Valence      Angular      Power
  Number     Number     Electrons     Momentum     of R      Exponent        Coefficient   SO-Coeffient
 ======================================================================================================
    1         79           19
                                      G and up 
                                                     1      622.6287956      -60.00000000    0.00000000
                                                     2      136.2843607     -555.52923120    0.00000000
                                                     2       33.1549781     -168.00197850    0.00000000
                                                     2        9.9894895      -63.03998750    0.00000000
                                                     2        3.0481312       -4.25166810    0.00000000
                                      S - G
                                                     0      194.7374304        3.00000000    0.00000000
                                                     1      351.5327447       38.60208800    0.00000000
                                                     2      122.3270402      864.83707270    0.00000000
                                                     2       32.0914617      374.99355200    0.00000000
                                                     2        5.2451812      289.79101000    0.00000000
                                                     2        4.4916223     -152.45327730    0.00000000
                                      P - G
                                                     0      420.6158801        2.00000000    0.00000000
                                                     1      109.4417815       73.88856250    0.00000000
                                                     2       34.1714280      326.67298720    0.00000000
                                                     2        5.9879750      126.58145910    0.00000000
                                      D - G
                                                     0      219.2666158        3.00000000    0.00000000
                                                     1      122.7297786       55.67931490    0.00000000
                                                     2       63.1063369      449.19873350    0.00000000
                                                     2       18.3684520      215.02690910    0.00000000
                                                     2        4.4972844       64.08409950    0.00000000
                                      F - G
                                                     0      108.5506037        4.00000000    0.00000000
                                                     1       56.4795527       51.80653350    0.00000000
                                                     2       29.2069159      231.21831130    0.00000000
                                                     2        9.5440543      119.00473860    0.00000000
                                                     2        2.8965118       15.34241880    0.00000000
    2         15
                                   No pseudopotential on this center.
    3          6
                                   No pseudopotential on this center.
    4          1
                                   No pseudopotential on this center.
    5          1
                                   No pseudopotential on this center.
    6          6
                                   No pseudopotential on this center.
    7          1
                                   No pseudopotential on this center.
    8          1
                                   No pseudopotential on this center.
    9          6
                                   No pseudopotential on this center.
   10          1
                                   No pseudopotential on this center.
   11          1
                                   No pseudopotential on this center.
   12          6
                                   No pseudopotential on this center.
   13          1
                                   No pseudopotential on this center.
   14          1
                                   No pseudopotential on this center.
   15          1
                                   No pseudopotential on this center.
   16          6
                                   No pseudopotential on this center.
   17          1
                                   No pseudopotential on this center.
   18          1
                                   No pseudopotential on this center.
   19          1
                                   No pseudopotential on this center.
   20          6
                                   No pseudopotential on this center.
   21          1
                                   No pseudopotential on this center.
   22          1
                                   No pseudopotential on this center.
   23          1
                                   No pseudopotential on this center.
   24          7
                                   No pseudopotential on this center.
   25          6
                                   No pseudopotential on this center.
   26          6
                                   No pseudopotential on this center.
   27          8
                                   No pseudopotential on this center.
   28          6
                                   No pseudopotential on this center.
   29          8
                                   No pseudopotential on this center.
   30          7
                                   No pseudopotential on this center.
   31          6
                                   No pseudopotential on this center.
   32          6
                                   No pseudopotential on this center.
   33          8
                                   No pseudopotential on this center.
   34          7
                                   No pseudopotential on this center.
   35          6
                                   No pseudopotential on this center.
   36          6
                                   No pseudopotential on this center.
   37          8
                                   No pseudopotential on this center.
   38          6
                                   No pseudopotential on this center.
   39         16
                                   No pseudopotential on this center.
   40          7
                                   No pseudopotential on this center.
   41          6
                                   No pseudopotential on this center.
   42          6
                                   No pseudopotential on this center.
   43          6
                                   No pseudopotential on this center.
   44          8
                                   No pseudopotential on this center.
   45          7
                                   No pseudopotential on this center.
   46          6
                                   No pseudopotential on this center.
   47          6
                                   No pseudopotential on this center.
   48          8
                                   No pseudopotential on this center.
   49          8
                                   No pseudopotential on this center.
   50          1
                                   No pseudopotential on this center.
   51          1
                                   No pseudopotential on this center.
   52          1
                                   No pseudopotential on this center.
   53          1
                                   No pseudopotential on this center.
   54          1
                                   No pseudopotential on this center.
   55          1
                                   No pseudopotential on this center.
   56          1
                                   No pseudopotential on this center.
   57          1
                                   No pseudopotential on this center.
   58          1
                                   No pseudopotential on this center.
   59          1
                                   No pseudopotential on this center.
   60          1
                                   No pseudopotential on this center.
   61          1
                                   No pseudopotential on this center.
   62          1
                                   No pseudopotential on this center.
   63          1
                                   No pseudopotential on this center.
   64          1
                                   No pseudopotential on this center.
   65          1
                                   No pseudopotential on this center.
   66          1
                                   No pseudopotential on this center.
   67          1
                                   No pseudopotential on this center.
   68          1
                                   No pseudopotential on this center.
   69          1
                                   No pseudopotential on this center.
   70          1
                                   No pseudopotential on this center.
   71         34
                                   No pseudopotential on this center.
   72         16
                                   No pseudopotential on this center.
   73          6
                                   No pseudopotential on this center.
   74          6
                                   No pseudopotential on this center.
   75          1
                                   No pseudopotential on this center.
   76          1
                                   No pseudopotential on this center.
   77          1
                                   No pseudopotential on this center.
   78          7
                                   No pseudopotential on this center.
   79          6
                                   No pseudopotential on this center.
   80          6
                                   No pseudopotential on this center.
   81          1
                                   No pseudopotential on this center.
   82          1
                                   No pseudopotential on this center.
   83          1
                                   No pseudopotential on this center.
   84          6
                                   No pseudopotential on this center.
   85          1
                                   No pseudopotential on this center.
   86          1
                                   No pseudopotential on this center.
   87          6
                                   No pseudopotential on this center.
   88          1
                                   No pseudopotential on this center.
   89          1
                                   No pseudopotential on this center.
   90          8
                                   No pseudopotential on this center.
   91          1
                                   No pseudopotential on this center.
   92          1
                                   No pseudopotential on this center.
 ======================================================================================================
 There are   816 symmetry adapted cartesian basis functions of A   symmetry.
 There are   766 symmetry adapted basis functions of A   symmetry.
   766 basis functions,  1571 primitive gaussians,   816 cartesian basis functions
   202 alpha electrons      202 beta electrons
       nuclear repulsion energy      8393.7212918239 Hartrees.
 NAtoms=   92 NActive=   92 NUniq=   92 SFac= 1.00D+00 NAtFMM=   60 NAOKFM=T Big=T
 Integral buffers will be    131072 words long.
 Raffenetti 2 integral format.
 Two-electron integral symmetry is turned on.
 One-electron integrals computed using PRISM.
   1 Symmetry operations used in ECPInt.
 ECPInt:  NShTT=   43071 NPrTT=  258405 LenC2=   31421 LenP2D=   94955.
 LDataN:  DoStor=T MaxTD1= 7 Len=  274
 NBasis=   766 RedAO= T EigKep=  2.31D-03  NBF=   766
 NBsUse=   766 1.00D-06 EigRej= -1.00D+00 NBFU=   766
 Defaulting to unpruned grid for atomic number  79.
 ExpMin= 2.79D-02 ExpMax= 5.61D+05 ExpMxC= 5.42D+03 IAcc=3 IRadAn=         5 AccDes= 0.00D+00
 Harris functional with IExCor=  402 and IRadAn=       5 diagonalized for initial guess.
 HarFok:  IExCor=  402 AccDes= 0.00D+00 IRadAn=         5 IDoV= 1 UseB2=F ITyADJ=14
 ICtDFT=  3500011 ScaDFX=  1.000000  1.000000  1.000000  1.000000
 Defaulting to unpruned grid for atomic number  79.
 Defaulting to unpruned grid for atomic number  79.
 Defaulting to unpruned grid for atomic number  79.
 Defaulting to unpruned grid for atomic number  79.
 Defaulting to unpruned grid for atomic number  79.
 Defaulting to unpruned grid for atomic number  79.
 Defaulting to unpruned grid for atomic number  79.
 Defaulting to unpruned grid for atomic number  79.
 FoFCou: FMM=F IPFlag=           0 FMFlag=      100000 FMFlg1=        2001
         NFxFlg=           0 DoJE=T BraDBF=F KetDBF=T FulRan=T
         wScrn=  0.000000 ICntrl=     500 IOpCl=  0 I1Cent=   200000004 NGrid=           0
         NMat0=    1 NMatS0=      1 NMatT0=    0 NMatD0=    1 NMtDS0=    0 NMtDT0=    0
 Petite list used in FoFCou.
 Requested convergence on RMS density matrix=1.00D-08 within 128 cycles.
 Requested convergence on MAX density matrix=1.00D-06.
 Requested convergence on             energy=1.00D-06.
 No special actions if energy rises.
 Defaulting to unpruned grid for atomic number  79.
 Defaulting to unpruned grid for atomic number  79.
 Defaulting to unpruned grid for atomic number  79.
 Defaulting to unpruned grid for atomic number  79.
 Defaulting to unpruned grid for atomic number  79.
 Defaulting to unpruned grid for atomic number  79.
 Defaulting to unpruned grid for atomic number  79.
 Defaulting to unpruned grid for atomic number  79.
 EnCoef did     3 forward-backward iterations
 EnCoef did     2 forward-backward iterations
 SCF Done:  E(RB3LYP) =  -5584.03807250     A.U. after   19 cycles
            NFock= 19  Conv=0.73D-08     -V/T= 2.0181

 **********************************************************************

            Population analysis using the SCF density.

 **********************************************************************

 Orbital symmetries:
       Occupied  (A) (A) (A) (A) (A) (A) (A) (A) (A) (A) (A) (A)
                 (A) (A) (A) (A) (A) (A) (A) (A) (A) (A) (A) (A)
                 (A) (A) (A) (A) (A) (A) (A) (A) (A) (A) (A) (A)
                 (A) (A) (A) (A) (A) (A) (A) (A) (A) (A) (A) (A)
                 (A) (A) (A) (A) (A) (A) (A) (A) (A) (A) (A) (A)
                 (A) (A) (A) (A) (A) (A) (A) (A) (A) (A) (A) (A)
                 (A) (A) (A) (A) (A) (A) (A) (A) (A) (A) (A) (A)
                 (A) (A) (A) (A) (A) (A) (A) (A) (A) (A) (A) (A)
                 (A) (A) (A) (A) (A) (A) (A) (A) (A) (A) (A) (A)
                 (A) (A) (A) (A) (A) (A) (A) (A) (A) (A) (A) (A)
                 (A) (A) (A) (A) (A) (A) (A) (A) (A) (A) (A) (A)
                 (A) (A) (A) (A) (A) (A) (A) (A) (A) (A) (A) (A)
                 (A) (A) (A) (A) (A) (A) (A) (A) (A) (A) (A) (A)
                 (A) (A) (A) (A) (A) (A) (A) (A) (A) (A) (A) (A)
                 (A) (A) (A) (A) (A) (A) (A) (A) (A) (A) (A) (A)
                 (A) (A) (A) (A) (A) (A) (A) (A) (A) (A) (A) (A)
                 (A) (A) (A) (A) (A) (A) (A) (A) (A) (A)
       Virtual   (A) (A) (A) (A) (A) (A) (A) (A) (A) (A) (A) (A)
                 (A) (A) (A) (A) (A) (A) (A) (A) (A) (A) (A) (A)
                 (A) (A) (A) (A) (A) (A) (A) (A) (A) (A) (A) (A)
                 (A) (A) (A) (A) (A) (A) (A) (A) (A) (A) (A) (A)
                 (A) (A) (A) (A) (A) (A) (A) (A) (A) (A) (A) (A)
                 (A) (A) (A) (A) (A) (A) (A) (A) (A) (A) (A) (A)
                 (A) (A) (A) (A) (A) (A) (A) (A) (A) (A) (A) (A)
                 (A) (A) (A) (A) (A) (A) (A) (A) (A) (A) (A) (A)
                 (A) (A) (A) (A) (A) (A) (A) (A) (A) (A) (A) (A)
                 (A) (A) (A) (A) (A) (A) (A) (A) (A) (A) (A) (A)
                 (A) (A) (A) (A) (A) (A) (A) (A) (A) (A) (A) (A)
                 (A) (A) (A) (A) (A) (A) (A) (A) (A) (A) (A) (A)
                 (A) (A) (A) (A) (A) (A) (A) (A) (A) (A) (A) (A)
                 (A) (A) (A) (A) (A) (A) (A) (A) (A) (A) (A) (A)
                 (A) (A) (A) (A) (A) (A) (A) (A) (A) (A) (A) (A)
                 (A) (A) (A) (A) (A) (A) (A) (A) (A) (A) (A) (A)
                 (A) (A) (A) (A) (A) (A) (A) (A) (A) (A) (A) (A)
                 (A) (A) (A) (A) (A) (A) (A) (A) (A) (A) (A) (A)
                 (A) (A) (A) (A) (A) (A) (A) (A) (A) (A) (A) (A)
                 (A) (A) (A) (A) (A) (A) (A) (A) (A) (A) (A) (A)
                 (A) (A) (A) (A) (A) (A) (A) (A) (A) (A) (A) (A)
                 (A) (A) (A) (A) (A) (A) (A) (A) (A) (A) (A) (A)
                 (A) (A) (A) (A) (A) (A) (A) (A) (A) (A) (A) (A)
                 (A) (A) (A) (A) (A) (A) (A) (A) (A) (A) (A) (A)
                 (A) (A) (A) (A) (A) (A) (A) (A) (A) (A) (A) (A)
                 (A) (A) (A) (A) (A) (A) (A) (A) (A) (A) (A) (A)
                 (A) (A) (A) (A) (A) (A) (A) (A) (A) (A) (A) (A)
                 (A) (A) (A) (A) (A) (A) (A) (A) (A) (A) (A) (A)
                 (A) (A) (A) (A) (A) (A) (A) (A) (A) (A) (A) (A)
                 (A) (A) (A) (A) (A) (A) (A) (A) (A) (A) (A) (A)
                 (A) (A) (A) (A) (A) (A) (A) (A) (A) (A) (A) (A)
                 (A) (A) (A) (A) (A) (A) (A) (A) (A) (A) (A) (A)
                 (A) (A) (A) (A) (A) (A) (A) (A) (A) (A) (A) (A)
                 (A) (A) (A) (A) (A) (A) (A) (A) (A) (A) (A) (A)
                 (A) (A) (A) (A) (A) (A) (A) (A) (A) (A) (A) (A)
                 (A) (A) (A) (A) (A) (A) (A) (A) (A) (A) (A) (A)
                 (A) (A) (A) (A) (A) (A) (A) (A) (A) (A) (A) (A)
                 (A) (A) (A) (A) (A) (A) (A) (A) (A) (A) (A) (A)
                 (A) (A) (A) (A) (A) (A) (A) (A) (A) (A) (A) (A)
                 (A) (A) (A) (A) (A) (A) (A) (A) (A) (A) (A) (A)
                 (A) (A) (A) (A) (A) (A) (A) (A) (A) (A) (A) (A)
                 (A) (A) (A) (A) (A) (A) (A) (A) (A) (A) (A) (A)
                 (A) (A) (A) (A) (A) (A) (A) (A) (A) (A) (A) (A)
                 (A) (A) (A) (A) (A) (A) (A) (A) (A) (A) (A) (A)
                 (A) (A) (A) (A) (A) (A) (A) (A) (A) (A) (A) (A)
                 (A) (A) (A) (A) (A) (A) (A) (A) (A) (A) (A) (A)
                 (A) (A) (A) (A) (A) (A) (A) (A) (A) (A) (A) (A)
 The electronic state is 1-A.
 Alpha  occ. eigenvalues -- -453.54210 -88.85596 -88.84366 -77.13089 -57.26091
 Alpha  occ. eigenvalues --  -52.03664 -52.03566 -52.03331 -19.19401 -19.14075
 Alpha  occ. eigenvalues --  -19.13452 -19.12965 -19.12740 -19.11719 -19.11355
 Alpha  occ. eigenvalues --  -19.10346 -14.36840 -14.36770 -14.34764 -14.34582
 Alpha  occ. eigenvalues --  -14.31910 -14.30702 -10.32306 -10.30280 -10.28668
 Alpha  occ. eigenvalues --  -10.28445 -10.27726 -10.24840 -10.24469 -10.22777
 Alpha  occ. eigenvalues --  -10.22577 -10.22513 -10.22060 -10.21763 -10.21555
 Alpha  occ. eigenvalues --  -10.21512 -10.21483 -10.21333 -10.21048 -10.20219
 Alpha  occ. eigenvalues --  -10.19645 -10.19533 -10.19523 -10.19472 -10.19235
 Alpha  occ. eigenvalues --  -10.18896 -10.18886  -7.92717  -7.91693  -7.61082
 Alpha  occ. eigenvalues --   -6.61032  -5.89141  -5.88789  -5.88219  -5.88074
 Alpha  occ. eigenvalues --   -5.87808  -5.87146  -5.74094  -5.73789  -5.72823
 Alpha  occ. eigenvalues --   -4.77158  -4.77151  -4.76990  -4.21727  -2.35717
 Alpha  occ. eigenvalues --   -2.35152  -2.33477  -2.10278  -2.10258  -2.09458
 Alpha  occ. eigenvalues --   -2.09213  -2.09029  -1.10956  -1.05048  -1.04056
 Alpha  occ. eigenvalues --   -1.03431  -1.02645  -1.02122  -1.01811  -1.01111
 Alpha  occ. eigenvalues --   -0.94142  -0.92971  -0.91998  -0.91370  -0.91297
 Alpha  occ. eigenvalues --   -0.88360  -0.82777  -0.78809  -0.78515  -0.78277
 Alpha  occ. eigenvalues --   -0.77248  -0.76776  -0.75931  -0.74523  -0.74431
 Alpha  occ. eigenvalues --   -0.72101  -0.70238  -0.69928  -0.69449  -0.68185
 Alpha  occ. eigenvalues --   -0.65265  -0.64512  -0.64415  -0.64188  -0.63281
 Alpha  occ. eigenvalues --   -0.61936  -0.61521  -0.60724  -0.59884  -0.58481
 Alpha  occ. eigenvalues --   -0.57597  -0.57433  -0.57035  -0.56376  -0.55242
 Alpha  occ. eigenvalues --   -0.53533  -0.52199  -0.51433  -0.50362  -0.49965
 Alpha  occ. eigenvalues --   -0.49620  -0.49578  -0.49249  -0.49177  -0.48615
 Alpha  occ. eigenvalues --   -0.48126  -0.47969  -0.47779  -0.47301  -0.46778
 Alpha  occ. eigenvalues --   -0.46448  -0.46305  -0.46064  -0.45375  -0.45219
 Alpha  occ. eigenvalues --   -0.44676  -0.44490  -0.44412  -0.44152  -0.43834
 Alpha  occ. eigenvalues --   -0.43613  -0.43471  -0.42523  -0.41879  -0.41752
 Alpha  occ. eigenvalues --   -0.41546  -0.41319  -0.41194  -0.41077  -0.40714
 Alpha  occ. eigenvalues --   -0.40653  -0.40505  -0.40179  -0.40131  -0.39985
 Alpha  occ. eigenvalues --   -0.39355  -0.39175  -0.39064  -0.38992  -0.38582
[...]
 10,0.00011400,-0.00017366,0.00012968,-0.01516698,0.02633505,-0.0098721
 9,0.08940435,-0.00003260,0.00006786,0.00001219,0.00004566,0.00007336,-
 0.00001385,-0.00000651,-0.00001315,0.00001822,-0.00001029,-0.00000439,
 -0.00000466,0.00000224,0.00000363,-0.00000158,-0.00001660,-0.00002549,
 0.00000746,-0.00000713,-0.00000411,0.00000723,0.00001600,0.00000360,-0
 .00000623,-0.00002456,-0.00001041,0.00000635,-0.00000374,0.00000383,-0
 .00000247,0.00000016,0.00000133,-0.00000164,0.00000222,-0.00000554,-0.
 00000374,0.00000306,0.00000251,0.00000227,0.00000382,0.00000043,0.0000
 0803,-0.00000579,-0.00000451,-0.00000328,0.00001512,-0.00000327,0.0000
 0055,-0.00000079,-0.00000510,0.00000425,-0.00000094,0.00000273,-0.0000
 0030,-0.00000343,-0.00000085,-0.00000208,0.00001039,0.00000637,-0.0000
 0877,-0.00000292,0.00000605,-0.00000528,-0.00000222,0.00000241,0.00000
 280,-0.00000058,-0.00000601,0.00000234,0.00000823,-0.00000487,0.000013
 64,-0.00000779,0.00000183,-0.00000623,0.00000152,0.00001608,0.00000062
 ,0.00000794,-0.00002065,0.00000601,-0.00001829,0.00001075,-0.00001428,
 0.00002084,-0.00001545,0.00001363,0.00001364,-0.00001681,0.00000009,-0
 .00000156,0.00000928,0.00000031,-0.00002309,0.00003707,-0.00003938,0.0
 0000029,-0.00002445,0.00002411,0.00003270,-0.00003223,0.00001854,0.000
 00259,0.00001271,-0.00000994,-0.00004320,0.00003713,0.00008454,0.00003
 520,-0.00001200,-0.00004597,-0.00002285,-0.00002247,-0.00001160,0.0000
 1448,-0.00004833,-0.00001698,0.00003230,-0.00007242,-0.00003463,-0.000
 01994,0.00003226,-0.00002388,0.00003149,0.00001574,0.00001268,-0.00013
 280,0.00001524,0.00008858,0.00008424,-0.00007685,-0.00007413,0.0000928
 2,0.00000391,-0.00001779,-0.00001741,0.00000717,0.00004330,-0.00006841
 ,0.00002276,0.00001520,0.00003650,-0.00001030,-0.00000570,0.00004329,-
 0.00001602,-0.00002385,0.00000038,-0.00000140,0.00000340,-0.00000384,0
 .00000297,-0.00000237,-0.00000123,0.00000566,0.00000042,0.00000033,-0.
 00000203,-0.00000042,-0.00000383,0.00000248,-0.00000362,0.00000231,0.0
 0000085,-0.00000636,0.00000067,-0.00000111,0.00000315,-0.00000069,0.00
 000240,-0.00000231,-0.00001149,0.00000805,-0.00000066,0.00001414,-0.00
 000272,-0.00000244,0.00000294,0.00000880,0.00001081,0.00000389,-0.0000
 0554,0.00000189,-0.00001538,0.00001191,-0.00000601,-0.00004305,0.00001
 565,0.00003865,-0.00001314,0.00003721,-0.00000939,0.00000403,-0.000005
 11,0.00000287,-0.00001115,0.00001419,-0.00001091,0.00000262,0.00000134
 ,-0.00000743,0.00000011,-0.00000141,-0.00000673,-0.00001972,0.00000973
 ,-0.00000869,-0.00000731,0.00000092,0.00000513,0.00000259,-0.00002191,
 0.00001313,-0.00006529,-0.00007700,-0.00008330,0.00014605,0.00006525,0
 .00009928,0.00124843,-0.00028963,0.00074093,-0.00004146,0.00000272,-0.
 00002937,-0.00001039,0.00002067,0.00000641,-0.00019307,-0.00010739,0.0
 0012119,-0.00503821,-0.00206851,0.00083433,0.00906538,-0.01693867,-0.0
 0038187,0.08168643,-0.28796871,0.02304351,-0.00001504,0.00099792,0.000
 50391,-0.00031234,0.00013059,-0.00043600,0.00209489,-0.00712662,0.0002
 3328,-0.00038612,0.00034732,-0.00078455,0.00005363,-0.00000676,0.00016
 190,0.00003017,-0.00002138,0.00001418,-0.00085530,0.00229570,-0.000266
 42,-0.00004600,-0.00004579,0.00002665,-0.00011075,0.00009653,-0.000031
 11,0.00182089,0.00488432,0.00252720,-0.08878173,0.30611202,0.00000598,
 -0.00000519,-0.00000653,-0.00000380,0.00000247,-0.00000046,-0.00000056
 ,-0.00000214,0.00000228,-0.00000100,-0.00000031,-0.00000070,0.00000003
 ,0.00000002,-0.00000003,-0.00000042,-0.00000260,-0.00000003,-0.0000002
 1,0.00000106,0.00000142,0.00000030,0.00000012,0.00000083,-0.00000257,-
 0.00000138,0.00000035,-0.00000044,-0.00000004,0.00000031,0.,-0.0000000
 8,-0.00000018,0.00000008,0.00000026,0.00000060,0.00000004,-0.00000008,
 -0.00000014,0.00000022,0.00000011,0.00000006,-0.00000012,-0.00000005,0
 .00000003,0.00000154,-0.00000037,0.00000043,-0.00000038,-0.00000075,0.
 00000048,-0.00000020,0.00000001,-0.00000025,0.00000015,0.00000031,0.00
 000002,-0.00000188,-0.00000054,0.00000156,-0.00000183,0.00000080,-0.00
 000072,0.00000100,0.00000052,-0.00000076,-0.00000004,-0.00000118,0.000
 00014,0.00000016,0.00000129,0.00000073,0.00000062,0.00000029,0.,-0.000
 00704,-0.00001337,-0.00000907,0.00000475,0.00001169,0.00000184,-0.0000
 0573,-0.00000649,-0.00000303,0.00000589,0.00000537,0.00000562,0.000003
 55,0.00000561,0.00000866,-0.00000159,-0.00000265,-0.00000042,-0.000004
 44,0.00000411,-0.00000575,0.00000218,0.00000030,0.00000437,0.00000598,
 -0.00000213,0.00000387,-0.00000107,0.00000132,-0.00000229,-0.00000234,
 -0.00000112,0.00000046,0.00000468,-0.00000006,0.00000245,-0.00000319,-
 0.00000109,-0.00000258,0.00000343,-0.00000016,0.00000132,0.00001449,-0
 .00001093,0.00001100,-0.00001753,-0.00000561,0.00000122,0.00000966,0.0
 0003366,0.00000278,0.00001533,-0.00002279,-0.00008508,-0.00000992,0.00
 005484,0.00006629,-0.00001906,0.00001118,0.00002086,0.00001191,-0.0000
 0046,-0.00001429,0.00000071,-0.00001063,-0.00001771,0.00000052,0.00000
 926,0.00001320,-0.00000773,0.00000606,0.00001000,0.00000048,-0.0000000
 4,0.00000058,0.00000156,-0.00000101,-0.00000028,-0.00000183,-0.0000024
 1,-0.00000148,-0.00000052,0.00000131,0.00000003,0.00000109,-0.00000172
 ,-0.00000153,-0.00000023,-0.00000004,0.00000090,0.00000053,0.00000014,
 -0.00000019,0.00000024,0.00000034,0.00000042,-0.00000079,0.00000015,-0
 .00000058,0.00000140,-0.00000050,0.00000010,-0.00000002,0.00000078,0.0
 0000101,0.00000032,-0.00000001,0.00000035,-0.00000321,0.00000062,-0.00
 000127,-0.00001362,0.00001500,-0.00001573,-0.00000498,-0.00001793,-0.0
 0000613,-0.00000035,0.00000424,0.00000312,-0.00000428,0.00000001,-0.00
 000635,-0.00000494,-0.00000090,0.00000351,-0.00000332,0.00000123,0.000
 00238,0.00000823,-0.00001644,-0.00000236,0.00000124,-0.00000156,-0.000
 00130,0.00000217,0.00000145,0.00000973,0.00002116,0.00001135,0.0000194
 1,0.00000807,-0.00000674,-0.00006061,-0.00035205,0.00044354,0.00035442
 ,0.00000347,-0.00000380,0.00001211,0.00000903,0.00001322,0.00000616,-0
 .00008428,-0.00010919,0.00002245,0.00155078,-0.00022293,0.00090345,-0.
 00148537,0.00940862,-0.00091317,-0.00200237,0.01434996,-0.05321429,-0.
 00052955,-0.00010857,0.00002970,0.00021844,-0.00018899,0.00018667,0.00
 842037,-0.02520109,0.00503575,-0.00049012,-0.00015866,-0.00004226,0.00
 006514,-0.00000479,0.00004627,0.00017080,0.00006192,0.00001426,-0.0026
 3733,-0.00198940,-0.00311156,-0.00065467,0.00127933,-0.00012388,-0.000
 40405,0.00047153,0.00028588,-0.01677391,0.02826135,-0.00883655,0.01491
 361,-0.02644820,0.05944074,0.00003186,-0.00023148,-0.00012600,-0.00002
 817,-0.00009704,-0.00006799,-0.00001608,0.00000806,0.00001408,-0.00000
 014,-0.00000404,-0.00000120,0.00000791,0.00000217,0.00000640,0.0000063
 8,0.00002672,-0.00004634,0.00002455,0.00002237,0.00004146,0.00000037,-
 0.00000865,0.00001110,-0.00002193,-0.00000217,0.00001512,0.00001514,-0
 .00001775,-0.00000023,0.00000360,0.00000884,-0.00000012,0.00000027,0.0
 0001156,0.00000333,-0.00000245,0.00000125,-0.00000520,-0.00000382,-0.0
 0000289,-0.00000586,0.00000622,0.00000195,0.00000270,0.00000886,-0.000
 00569,-0.00000153,-0.00000262,0.00000153,-0.00000023,-0.00000700,-0.00
 000552,0.00000643,0.00000279,0.00000437,0.00000257,-0.00013478,-0.0001
 1449,0.00010103,-0.00005290,-0.00006943,0.00003732,0.00002659,0.000017
 15,-0.00000239,0.00002486,0.00002473,-0.00000696,-0.00000890,0.0000019
 7,0.00000234,-0.00000277,-0.00000221,0.00000008,0.00002568,0.00004288,
 -0.00000132,-0.00001654,-0.00003904,0.00001082,0.00004418,0.00001431,0
 .00001498,-0.00006220,0.00000792,0.00000750,-0.00001167,-0.00001464,-0
 .00001149,0.00000466,0.00000562,0.00000014,0.00001849,-0.00000320,-0.0
 0001076,-0.00001958,0.00000607,0.00001359,-0.00001384,-0.00000048,0.00
 000462,-0.00000141,0.00000400,-0.00000703,0.00000558,0.00001755,0.0000
 0835,-0.00001644,-0.00001253,0.00000304,0.00001517,-0.00001874,-0.0000
 0493,0.00002835,0.00002732,0.00001686,-0.00001195,-0.00002898,-0.00002
 302,-0.00001873,-0.00003612,0.00014802,-0.00045042,0.00056136,0.000343
 02,-0.00018939,0.00007813,0.00038332,0.00023489,-0.00024277,-0.0002442
 2,0.00014100,0.00002887,-0.00008821,-0.00001732,0.00002147,0.00003676,
 -0.00002462,0.00001177,-0.00000065,0.00001330,-0.00000816,-0.00000298,
 0.00001893,-0.00001068,-0.00000819,-0.00000230,-0.00000627,0.00000309,
 -0.00000253,0.00000599,-0.00000951,0.00001242,-0.00001192,-0.00000871,
 0.00000076,-0.00000251,0.00000092,0.00000040,0.00000166,-0.00000179,-0
 .00000175,0.00000032,-0.00000035,-0.00000130,-0.00000137,-0.00000034,-
 0.00000111,-0.00000092,0.00000038,0.00000220,0.00000138,0.00000046,-0.
 00000497,0.00000139,-0.00000096,-0.00000680,0.00000368,0.00000102,-0.0
 0000437,-0.00000130,-0.00000144,0.00001387,-0.00000743,-0.00000063,0.0
 0002199,-0.00005361,-0.00001551,0.00018649,0.00045150,0.00111694,-0.00
 005529,0.00001918,-0.00001665,0.00003351,-0.00000277,-0.00001186,0.000
 00961,-0.00000036,-0.00001190,0.00000738,-0.00000381,-0.00000603,-0.00
 002373,-0.00000185,-0.00000847,-0.00000040,0.00000226,0.00000024,-0.00
 001088,-0.00008210,-0.00014011,0.00045772,0.00059383,0.00017498,-0.010
 49495,0.01349817,-0.00627463,-0.10928790,0.11032041,-0.03787271,-0.000
 93992,-0.00126320,-0.00354181,0.00044641,-0.00039879,0.00022986,-0.008
 54528,0.01568350,-0.00545464,0.00871635,-0.02540003,0.00873009,-0.0036
 5413,-0.00248053,0.00052578,0.00068924,-0.00148765,0.00013553,0.000081
 25,-0.00030826,-0.00018108,-0.00004512,0.00009884,0.00016381,0.0000478
 0,0.00008944,-0.00002270,0.00108398,-0.00288701,0.00058944,-0.00028117
 ,0.00029802,-0.00012686,-0.00040698,0.00003573,-0.00001364,0.00037026,
 -0.00028157,0.00027360,0.00003173,0.00008515,-0.00002067,0.00000694,0.
 00002126,0.00001582,0.00004812,0.00012891,0.00004702,-0.00038049,-0.00
 027663,0.00005351,0.12230900,0.00012167,0.00012579,-0.00019904,-0.0000
 2730,-0.00008410,0.00004338,-0.00000425,-0.00000316,0.00001128,-0.0000
 0269,-0.00000223,-0.00000187,-0.00000350,-0.00000193,-0.00000004,-0.00
 000545,-0.00001651,0.00001802,-0.00001445,0.00000624,-0.00001454,-0.00
 001764,0.00000881,-0.00000725,-0.00001774,-0.00000411,0.00000771,-0.00
 000350,0.00000164,0.00000067,0.00000224,-0.00000219,0.00000114,0.00000
 033,-0.00000348,-0.00000279,0.00000220,0.00000106,-0.00000026,-0.00000
 103,0.00000448,0.00000313,-0.00000198,-0.00000188,-0.00000093,0.000006
 51,-0.00000388,0.00000158,-0.00000022,-0.00000065,0.00000165,0.0000023
 0,0.00000201,-0.00000142,-0.00000177,-0.00000072,-0.00000209,0.0000382
 8,0.00001746,-0.00003365,-0.00000611,0.00003252,0.00003737,0.00000512,
 0.00000157,0.00000052,-0.00000483,-0.00000075,-0.00000012,0.00000431,-
 0.00000454,0.00000617,-0.00000938,-0.00000032,-0.00000812,0.00001447,0
 .00003711,0.00001921,-0.00000129,-0.00003649,0.00000104,0.00001327,0.0
 0002591,0.00001288,-0.00000930,-0.00001921,-0.00001513,0.00000231,-0.0
 0002335,-0.00001748,0.00000386,0.00001409,0.00000060,0.00000095,0.0000
 0257,0.00000419,-0.00000551,-0.00000945,-0.00000333,-0.00001705,-0.000
 00968,-0.00000801,-0.00000262,0.00001025,-0.00000209,-0.00002522,0.000
 06487,0.00010910,0.00001664,-0.00002843,-0.00005700,0.00002861,0.00000
 156,0.00000836,-0.00001788,0.00002769,0.00001150,0.00000602,-0.0000874
 9,-0.00007100,0.00001483,0.00010579,-0.00023227,0.00058753,-0.00076042
 ,-0.00054037,-0.00030182,0.00001277,0.00025715,0.00026606,-0.00025373,
 -0.00023461,0.00019962,0.00007550,-0.00006775,-0.00002233,0.00000430,0
 .00006438,-0.00006447,0.00001843,0.00000643,0.00003738,-0.00000539,-0.
 00000405,0.00004264,-0.00001464,-0.00002049,-0.00000235,0.00000094,-0.
 00000258,-0.00000912,0.00000391,-0.00000143,-0.00000018,0.00000780,0.0
 0000775,0.00000276,-0.00000459,0.00000036,-0.00000539,0.00000353,-0.00
 000035,0.00000128,0.00000008,-0.00000500,-0.00000208,-0.00000103,0.000
 00192,-0.00000090,0.00000021,-0.00000219,-0.00000704,0.00000601,-0.000
 00032,-0.00001683,-0.00000142,-0.00000152,-0.00000383,0.00000371,0.000
 00189,-0.00000343,-0.00000521,-0.00000336,0.00001666,-0.00000431,0.000
 01176,-0.00011695,-0.00003435,0.00021551,0.00057420,0.00016428,-0.0010
 0394,0.00008191,-0.00005273,0.00000742,0.00001004,0.00000833,-0.000006
 88,0.00000874,-0.00000146,-0.00001839,0.00000499,0.00000024,-0.0000080
 3,-0.00002571,-0.00001206,-0.00000925,-0.00000494,-0.00000069,0.000004
 01,0.00004131,-0.00004089,-0.00005374,-0.00124985,0.00141909,-0.000897
 82,-0.00436870,0.00606211,-0.00249899,0.10299919,-0.22732116,0.0665455
 9,-0.00162139,0.00035121,-0.00166883,0.00019649,0.00010240,0.00031115,
 0.00641648,-0.00846468,0.00256844,0.00623313,-0.02554482,0.00859055,-0
 .00542432,-0.00121711,0.00058881,0.00181459,-0.00101272,0.00069966,0.0
 0001035,0.00027222,-0.00012768,0.00008561,0.00024909,0.00003045,-0.000
 13724,-0.00003619,0.00002664,0.00226139,0.00007030,0.00101966,-0.00009
 349,-0.00025008,-0.00035969,-0.00104278,0.00052484,-0.00033966,-0.0002
 1966,-0.00033037,0.00008701,-0.00002158,0.00000542,-0.00001368,0.00006
 165,0.00008241,-0.00000905,-0.00043605,0.00086648,-0.00057356,-0.00047
 077,-0.00032386,0.00010032,-0.10636398,0.25523139,-0.00001496,-0.00024
 633,0.00003145,-0.00011312,-0.00004411,0.00008758,0.00003308,0.0000139
 7,-0.00005911,0.00001970,0.00001149,0.00001140,-0.00001142,-0.00001119
 ,-0.00000581,0.00001709,0.00005006,0.00000076,0.00000697,-0.00003599,-
 0.00004629,0.00000244,-0.00000857,0.00000580,0.00008237,0.00001944,-0.
 00004378,-0.00000626,0.00000543,0.00000966,-0.00000255,-0.00001145,0.0
 0000227,-0.00000509,0.00000383,0.00001064,0.00000182,-0.00000328,-0.00
 000190,-0.00000399,-0.00000094,-0.00001433,0.00000634,0.00000540,-0.00
 000051,-0.00004118,0.00001654,0.00000365,0.00000713,0.00001064,-0.0000
 0904,0.00001002,-0.00000024,-0.00000635,0.00000213,-0.00000259,-0.0000
 0123,0.00006668,0.00002716,-0.00003950,0.00008598,0.00001201,-0.000003
 93,0.00000143,-0.00000542,-0.00001085,-0.00000783,-0.00000274,0.000003
 01,-0.00000081,-0.00000082,-0.00002884,0.00000609,-0.00000559,0.000003
 57,0.00000187,-0.00001292,0.00005408,-0.00001011,0.00002140,-0.0000345
 3,0.00002067,0.00001520,0.00003679,-0.00000821,-0.00000629,-0.00007822
 ,-0.00002424,0.00001726,-0.00003279,0.00000350,-0.00001071,0.00000189,
 0.00003042,-0.00007102,0.00009600,0.00001489,0.00002766,-0.00007240,-0
 .00004726,0.00006436,-0.00004285,-0.00000075,-0.00003456,0.00003184,0.
 00005996,-0.00011560,-0.00019639,-0.00006076,0.00006204,0.00009911,0.0
 0000517,0.00003664,0.00000550,-0.00002939,-0.00004896,-0.00001017,-0.0
 0006753,0.00019567,0.00003720,-0.00002851,-0.00020108,0.00044625,0.000
 21000,0.00018250,-0.00083392,0.00032151,0.00007708,0.00018285,-0.00014
 513,-0.00002363,-0.00026524,-0.00010260,-0.00006571,-0.00004426,0.0000
 0105,0.00000503,-0.00004266,0.00008466,-0.00001552,0.00002440,-0.00005
 172,-0.00000019,-0.00002752,-0.00003882,0.00000931,0.00000649,-0.00000
 237,0.00001265,-0.00001733,-0.00000840,-0.00000397,0.00001806,-0.00000
 547,0.00001460,0.00001708,0.00000321,-0.00000176,-0.00000088,-0.000002
 74,0.00000241,0.00001560,-0.00000088,-0.00000222,0.00000532,-0.0000015
 5,0.00000301,-0.00000307,0.00000095,-0.00000393,0.00000076,0.00001911,
 -0.00001552,0.00000417,-0.00000178,0.00000466,0.00000381,0.00000955,-0
 .00002152,-0.00001590,0.00000037,0.00001134,-0.00000063,0.00000882,-0.
 00001322,0.00000219,0.00011086,0.00008069,-0.00005214,0.00108321,-0.00
 137682,-0.00035415,-0.00013410,0.00010678,-0.00005563,0.00003726,-0.00
 005480,0.00006757,0.00000159,0.00000605,0.00000929,0.00001189,-0.00000
 926,0.00000811,0.00000135,0.00000931,0.00002243,0.00000482,0.00000064,
 -0.00000175,-0.00003517,-0.00006739,-0.00009283,0.00094189,0.00085086,
 0.00094014,-0.01549905,0.02128343,-0.00863325,-0.03512457,0.06512197,-
 0.07459116,-0.00241742,-0.00115091,-0.00400346,0.00033979,0.00024392,0
 .00064884,0.01217333,-0.02087689,0.00796110,-0.00296456,0.00999822,-0.
 00366461,0.00129389,-0.00044389,0.00033445,-0.00058929,0.00034096,0.00
 025741,-0.00016444,0.00055148,0.00020281,-0.00000846,-0.00019075,-0.00
 000560,-0.00005364,-0.00006614,0.00000911,-0.00084705,-0.00160595,0.00
 050277,0.00010051,-0.00017200,-0.00002607,-0.00004190,-0.00010273,0.00
 056225,0.00000140,-0.00008303,-0.00021812,-0.00002575,-0.00001425,0.00
 000888,0.00005566,0.00002379,-0.00004110,0.00018730,-0.00012107,0.0001
 4034,0.00014867,0.00012129,-0.00005303,0.04111240,-0.07229474,0.080848
 52\\0.00000893,-0.00000502,-0.00000353,0.00000290,0.00000135,-0.000006
 08,0.00000295,-0.00000890,0.00000560,-0.00000011,-0.00000543,-0.000003
 34,-0.00000067,0.00000120,-0.00000462,-0.00000799,-0.00000008,-0.00000
 161,-0.00000006,0.00000060,-0.00000411,0.00000205,-0.00000135,-0.00000
 220,-0.00000179,0.00001224,-0.00000806,-0.00000063,-0.00000085,0.00000
 165,0.00000204,-0.00000201,-0.00000564,-0.00000284,0.00000279,-0.00000
 362,0.00000098,-0.00000399,-0.00000471,0.00000277,-0.00000149,-0.00000
 329,0.00000248,-0.00000095,-0.00000376,0.00000015,0.00000063,0.0000046
 1,0.00000043,-0.00000080,-0.00000091,-0.00000255,-0.00000460,-0.000001
 68,-0.00000065,0.00000043,-0.00000343,-0.00000171,-0.00000534,-0.00000
 030,-0.00000117,0.00000195,-0.00000120,-0.00000073,0.00000226,-0.00000
 428,-0.00000115,0.00000026,-0.00000445,0.00000039,0.00000482,-0.000001
 26,-0.00000713,-0.00000377,0.00000600,0.00002566,-0.00001216,0.0000178
 1,-0.00000959,0.00000641,-0.00000075,-0.00000324,-0.00000141,0.0000025
 1,-0.00000059,0.00001058,-0.00000363,-0.00000423,0.00000216,-0.0000084
 2,0.00000704,0.00000844,0.00000631,-0.00001213,-0.00001733,-0.00001179
 ,0.00000285,0.00000414,-0.00000003,-0.00000188,0.00000642,0.00001114,0
 .00000732,0.00000769,-0.00000239,-0.00000244,-0.00000877,-0.00000659,0
 .00000296,0.00000182,0.00000566,-0.00000992,-0.00000208,0.00000046,0.0
 0000843,0.00000702,0.00000393,0.00000451,0.00000857,0.00000739,-0.0000
 0030,-0.00000592,0.00000226,0.00000179,0.00000849,-0.00000253,0.000000
 74,-0.00001185,0.00000738,-0.00000131,0.00000810,-0.00000553,0.0000025
 0,0.00000684,-0.00000162,0.00000359,0.00000750,0.00000385,-0.00000241,
 -0.00000444,0.00001100,-0.00000116,0.00000300,-0.00000032,0.00000247,0
 .00000351,0.00000122,-0.00000175,0.00000179,0.00000214,-0.00000574,0.0
 0000119,-0.00000017,0.00000187,-0.00000089,0.00000386,0.00000094,0.000
 00533,0.00000429,0.00000046,0.00000232,0.00000465,-0.00000028,0.000000
 18,0.00000335,-0.00000032,-0.00000035,0.00000190,0.00000150,0.00000026
 ,0.00000499,0.00000021,0.00000137,0.00000173,0.00000361,-0.00000205,0.
 00000271,0.00001068,-0.00000051,0.00000310,0.00000013,-0.00000175,-0.0
 0000070,0.00000221,-0.00000196,0.00000264,-0.00000180,-0.00000205,0.00
 000209,-0.00000003,-0.00000044,0.00000059,0.00000328,0.00000093,0.0000
 0031,-0.00000175,0.00000002,0.00000092,-0.00000277,-0.00000207,0.00000
 061,0.00000262,-0.00000353,0.00000259,-0.00000198,-0.00000453,0.000003
 45,0.00000071,0.00000101,0.00000476,-0.00000681,-0.00000448,0.00000257
 ,0.00000304,-0.00000877,-0.00000391,0.00000136,0.00000016,-0.00000969,
 0.00000337,0.00000478,0.00000194,-0.00000072,-0.00000267,-0.00000116,0
 .00000090,-0.00000259,0.00000007,-0.00000307,-0.00000109,-0.00000352,-
 0.00000314,-0.00000112,0.00000183,0.00000052,-0.00000319,-0.00000237,-
 0.00000007,0.00000058,0.00000001,-0.00000215,0.00000058,-0.00000214,-0
 .00000041,0.00000037,-0.00000167,-0.00000068,0.00000023,-0.00000160,-0
 .00000660,-0.00000076,-0.00000511,-0.00000217,0.00000063,-0.00000109,-
 0.00000053,0.00000028,0.00000004,-0.00000148,0.00000147,0.00000059,-0.
 00000215,0.00000081,-0.00000009,-0.00000080,0.00000034,-0.00000046,-0.
 00000259,-0.00000061,-0.00000230,-0.00000189,-0.00000014,-0.00000251,-
 0.00000327,0.00000022,-0.00000234\\\@


 IT IS A CAPITAL MISTAKE TO THEORIZE BEFORE ONE HAS
 DATA.  INSENSIBLY ONE BEGINS TO TWIST FACTS TO SUIT
 THEORIES RATHER THAN THEORIES TO SUIT FACTS.

                                         -- SHERLOCK HOLMES
 Job cpu time:       1 days  0 hours 21 minutes 40.8 seconds.
 File lengths (MBytes):  RWF=   6589 Int=      0 D2E=      0 Chk=     46 Scr=      1
 Normal termination of Gaussian 09 at Fri Apr 21 00:28:48 2023.
