 Entering Gaussian System, Link 0=g09
 Input=AF12-helio.com
 Output=AF12-helio.log
 Initial command:
 /home/scr/programs/g09/l1.exe "/home/scr/helius/Gau-10436.inp" -scrdir="/home/scr/helius/"
 Entering Link 1 = /home/scr/programs/g09/l1.exe PID=     10438.
  
 Copyright (c) 1988,1990,1992,1993,1995,1998,2003,2009,2013,
            Gaussian, Inc.  All Rights Reserved.
  
 This is part of the Gaussian(R) 09 program.  It is based on
 the Gaussian(R) 03 system (copyright 2003, Gaussian, Inc.),
 the Gaussian(R) 98 system (copyright 1998, Gaussian, Inc.),
 the Gaussian(R) 94 system (copyright 1995, Gaussian, Inc.),
 the Gaussian 92(TM) system (copyright 1992, Gaussian, Inc.),
 the Gaussian 90(TM) system (copyright 1990, Gaussian, Inc.),
 the Gaussian 88(TM) system (copyright 1988, Gaussian, Inc.),
 the Gaussian 86(TM) system (copyright 1986, Carnegie Mellon
 University), and the Gaussian 82(TM) system (copyright 1983,
 Carnegie Mellon University). Gaussian is a federally registered
 trademark of Gaussian, Inc.
  
 This software contains proprietary and confidential information,
 including trade secrets, belonging to Gaussian, Inc.
  
 This software is provided under written license and may be
 used, copied, transmitted, or stored only in accord with that
 written license.
  
 The following legend is applicable only to US Government
 contracts under FAR:
  
                    RESTRICTED RIGHTS LEGEND
  
 Use, reproduction and disclosure by the US Government is
 subject to restrictions as set forth in subparagraphs (a)
 and (c) of the Commercial Computer Software - Restricted
 Rights clause in FAR 52.227-19.
  
 Gaussian, Inc.
 340 Quinnipiac St., Bldg. 40, Wallingford CT 06492
  
  
 ---------------------------------------------------------------
 Warning -- This program may not be used in any manner that
 competes with the business of Gaussian, Inc. or will provide
 assistance to any competitor of Gaussian, Inc.  The licensee
 of this program is prohibited from giving any competitor of
 Gaussian, Inc. access to this program.  By using this program,
 the user acknowledges that Gaussian, Inc. is engaged in the
 business of creating and licensing software in the field of
 computational chemistry and represents and warrants to the
 licensee that it is not a competitor of Gaussian, Inc. and that
 it will not use this program in any manner prohibited above.
 ---------------------------------------------------------------
  

 Cite this work as:
 Gaussian 09, Revision D.01,
 M. J. Frisch, G. W. Trucks, H. B. Schlegel, G. E. Scuseria, 
 M. A. Robb, J. R. Cheeseman, G. Scalmani, V. Barone, B. Mennucci, 
 G. A. Petersson, H. Nakatsuji, M. Caricato, X. Li, H. P. Hratchian, 
 A. F. Izmaylov, J. Bloino, G. Zheng, J. L. Sonnenberg, M. Hada, 
 M. Ehara, K. Toyota, R. Fukuda, J. Hasegawa, M. Ishida, T. Nakajima, 
 Y. Honda, O. Kitao, H. Nakai, T. Vreven, J. A. Montgomery, Jr., 
 J. E. Peralta, F. Ogliaro, M. Bearpark, J. J. Heyd, E. Brothers, 
 K. N. Kudin, V. N. Staroverov, T. Keith, R. Kobayashi, J. Normand, 
 K. Raghavachari, A. Rendell, J. C. Burant, S. S. Iyengar, J. Tomasi, 
 M. Cossi, N. Rega, J. M. Millam, M. Klene, J. E. Knox, J. B. Cross, 
 V. Bakken, C. Adamo, J. Jaramillo, R. Gomperts, R. E. Stratmann, 
 O. Yazyev, A. J. Austin, R. Cammi, C. Pomelli, J. W. Ochterski, 
 R. L. Martin, K. Morokuma, V. G. Zakrzewski, G. A. Voth, 
 P. Salvador, J. J. Dannenberg, S. Dapprich, A. D. Daniels, 
 O. Farkas, J. B. Foresman, J. V. Ortiz, J. Cioslowski, 
 and D. J. Fox, Gaussian, Inc., Wallingford CT, 2013.
 
 ******************************************
 Gaussian 09:  EM64L-G09RevD.01 24-Apr-2013
                24-Apr-2023 
 ******************************************
 %mem=30000MB
 %nprocshared=8
 Will use up to    8 processors via shared memory.
 ----------------------------------------
 # opt freq=noraman b3lyp/gen pseudo=read
 ----------------------------------------
 1/14=-1,18=20,19=15,26=3,38=1/1,3;
 2/9=110,12=2,17=6,18=5,40=1/2;
 3/5=7,11=2,16=1,17=8,25=1,30=1,71=1,74=-5/1,2,3;
 4//1;
 5/5=2,38=5/2;
 6/7=2,8=2,9=2,10=2,28=1/1;
 7//1,2,3,16;
 1/14=-1,18=20,19=15,26=3/3(2);
 2/9=110/2;
 99//99;
 2/9=110/2;
 3/5=7,6=1,11=2,16=1,17=8,25=1,30=1,71=1,74=-5,82=7/1,2,3;
 4/5=5,16=3,69=1/1;
 5/5=2,38=5/2;
 7//1,2,3,16;
 1/14=-1,18=20,19=15,26=3/3(-5);
 2/9=110/2;
 6/7=2,8=2,9=2,10=2,19=2,28=1/1;
 99/9=1/99;
 --
 af
 --
 Symbolic Z-matrix:
 Charge =  0 Multiplicity = 1
 Au                    1.15396  -0.6059   -0.14084 
 S                    -0.88808  -1.71849  -0.29984 
 P                     3.1894    0.45112   0.00392 
 C                     3.8229    1.07808  -1.59493 
 C                     2.82208   1.94525  -2.35384 
 C                     3.15071   1.91361   1.10474 
 C                     2.73054   1.5886    2.53506 
 C                     4.50237  -0.6519    0.64876 
 C                     5.88313  -0.03197   0.84406 
 H                     4.75059   1.62965  -1.40491 
 H                     4.08607   0.19171  -2.18375 
 H                     3.2439    2.25066  -3.31634 
 H                     2.57008   2.85487  -1.80003 
 H                     1.89357   1.39809  -2.54682 
 H                     4.13877   2.38781   1.07902 
 H                     2.44622   2.61894   0.65091 
 H                     2.67231   2.50609   3.12855 
 H                     3.44546   0.92099   3.0263 
 H                     1.74763   1.1065    2.55751 
 H                     4.54635  -1.49381  -0.05192 
 H                     4.12076  -1.06139   1.59058 
 H                     6.29853   0.3455   -0.09481 
 H                     6.57453  -0.78745   1.23051 
 H                     5.86249   0.79265   1.56311 
 C                    -2.13032  -0.43812   0.11571 
 C                    -3.52751  -1.00199  -0.11093 
 H                    -1.95274   0.44114  -0.50746 
 H                    -2.02278  -0.14121   1.1629 
 H                    -3.63515  -1.30086  -1.17237 
 H                    -3.63554  -1.91536   0.48667 
 N                    -4.58654  -0.08802   0.28887 
 C                    -4.70835   1.05721  -0.60001 
 C                    -5.81988   1.97622  -0.12657 
 H                    -4.92109   0.73196  -1.63858 
 H                    -3.77142   1.62259  -0.61453 
 H                    -5.55941   2.39176   0.86081 
 C                    -5.86816  -0.77166   0.36503 
 H                    -6.15468  -1.19859  -0.61711 
 H                    -5.79399  -1.59986   1.07916 
 C                    -6.95259   0.1869    0.8216 
 H                    -7.92687  -0.31012   0.82118 
 H                    -6.73308   0.53376   1.84483 
 O                    -7.05671   1.29891  -0.04402 
 H                    -5.95538   2.80255  -0.83013 
 

 GradGradGradGradGradGradGradGradGradGradGradGradGradGradGradGradGradGrad
 Berny optimization.
 Initialization pass.
                           ----------------------------
                           !    Initial Parameters    !
                           ! (Angstroms and Degrees)  !
 --------------------------                            --------------------------
 ! Name  Definition              Value          Derivative Info.                !
 --------------------------------------------------------------------------------
 ! R1    R(1,2)                  2.3309         estimate D2E/DX2                !
 ! R2    R(1,3)                  2.2981         estimate D2E/DX2                !
 ! R3    R(2,25)                 1.8317         estimate D2E/DX2                !
 ! R4    R(3,4)                  1.8305         estimate D2E/DX2                !
 ! R5    R(3,6)                  1.8309         estimate D2E/DX2                !
 ! R6    R(3,8)                  1.832          estimate D2E/DX2                !
 ! R7    R(4,5)                  1.5263         estimate D2E/DX2                !
 ! R8    R(4,10)                 1.0959         estimate D2E/DX2                !
 ! R9    R(4,11)                 1.0962         estimate D2E/DX2                !
 ! R10   R(5,12)                 1.0944         estimate D2E/DX2                !
 ! R11   R(5,13)                 1.0944         estimate D2E/DX2                !
 ! R12   R(5,14)                 1.0949         estimate D2E/DX2                !
 ! R13   R(6,7)                  1.5258         estimate D2E/DX2                !
 ! R14   R(6,15)                 1.0963         estimate D2E/DX2                !
 ! R15   R(6,16)                 1.0953         estimate D2E/DX2                !
 ! R16   R(7,17)                 1.0943         estimate D2E/DX2                !
 ! R17   R(7,18)                 1.0946         estimate D2E/DX2                !
 ! R18   R(7,19)                 1.095          estimate D2E/DX2                !
 ! R19   R(8,9)                  1.5261         estimate D2E/DX2                !
 ! R20   R(8,20)                 1.0962         estimate D2E/DX2                !
 ! R21   R(8,21)                 1.0956         estimate D2E/DX2                !
 ! R22   R(9,22)                 1.0939         estimate D2E/DX2                !
 ! R23   R(9,23)                 1.0946         estimate D2E/DX2                !
 ! R24   R(9,24)                 1.0943         estimate D2E/DX2                !
 ! R25   R(25,26)                1.5236         estimate D2E/DX2                !
 ! R26   R(25,27)                1.0922         estimate D2E/DX2                !
 ! R27   R(25,28)                1.0938         estimate D2E/DX2                !
 ! R28   R(26,29)                1.108          estimate D2E/DX2                !
 ! R29   R(26,30)                1.0968         estimate D2E/DX2                !
 ! R30   R(26,31)                1.4549         estimate D2E/DX2                !
 ! R31   R(31,32)                1.4548         estimate D2E/DX2                !
 ! R32   R(31,37)                1.4545         estimate D2E/DX2                !
 ! R33   R(32,33)                1.518          estimate D2E/DX2                !
 ! R34   R(32,34)                1.1089         estimate D2E/DX2                !
 ! R35   R(32,35)                1.0944         estimate D2E/DX2                !
 ! R36   R(33,36)                1.1025         estimate D2E/DX2                !
 ! R37   R(33,43)                1.4126         estimate D2E/DX2                !
 ! R38   R(33,44)                1.0937         estimate D2E/DX2                !
 ! R39   R(37,38)                1.1086         estimate D2E/DX2                !
 ! R40   R(37,39)                1.0961         estimate D2E/DX2                !
 ! R41   R(37,40)                1.5177         estimate D2E/DX2                !
 ! R42   R(40,41)                1.0937         estimate D2E/DX2                !
 ! R43   R(40,42)                1.1025         estimate D2E/DX2                !
 ! R44   R(40,43)                1.413          estimate D2E/DX2                !
 ! A1    A(1,2,25)             104.183          estimate D2E/DX2                !
 ! A2    A(1,3,4)              114.1446         estimate D2E/DX2                !
 ! A3    A(1,3,6)              112.7405         estimate D2E/DX2                !
 ! A4    A(1,3,8)              112.334          estimate D2E/DX2                !
 ! A5    A(4,3,6)              105.004          estimate D2E/DX2                !
 ! A6    A(4,3,8)              105.4045         estimate D2E/DX2                !
 ! A7    A(6,3,8)              106.5255         estimate D2E/DX2                !
 ! A8    A(3,4,5)              113.7014         estimate D2E/DX2                !
 ! A9    A(3,4,10)             108.2945         estimate D2E/DX2                !
 ! A10   A(3,4,11)             105.981          estimate D2E/DX2                !
 ! A11   A(5,4,10)             110.8143         estimate D2E/DX2                !
 ! A12   A(5,4,11)             110.4721         estimate D2E/DX2                !
 ! A13   A(10,4,11)            107.2698         estimate D2E/DX2                !
 ! A14   A(4,5,12)             110.0671         estimate D2E/DX2                !
 ! A15   A(4,5,13)             111.8153         estimate D2E/DX2                !
 ! A16   A(4,5,14)             111.087          estimate D2E/DX2                !
 ! A17   A(12,5,13)            107.5705         estimate D2E/DX2                !
 ! A18   A(12,5,14)            108.1396         estimate D2E/DX2                !
 ! A19   A(13,5,14)            108.0171         estimate D2E/DX2                !
 ! A20   A(3,6,7)              113.5346         estimate D2E/DX2                !
 ! A21   A(3,6,15)             108.2022         estimate D2E/DX2                !
 ! A22   A(3,6,16)             106.1917         estimate D2E/DX2                !
 ! A23   A(7,6,15)             111.2436         estimate D2E/DX2                !
 ! A24   A(7,6,16)             110.3929         estimate D2E/DX2                !
 ! A25   A(15,6,16)            106.9431         estimate D2E/DX2                !
 ! A26   A(6,7,17)             110.1505         estimate D2E/DX2                !
 ! A27   A(6,7,18)             111.763          estimate D2E/DX2                !
 ! A28   A(6,7,19)             111.1122         estimate D2E/DX2                !
 ! A29   A(17,7,18)            107.6212         estimate D2E/DX2                !
 ! A30   A(17,7,19)            108.0754         estimate D2E/DX2                !
 ! A31   A(18,7,19)            107.9721         estimate D2E/DX2                !
 ! A32   A(3,8,9)              116.6726         estimate D2E/DX2                !
 ! A33   A(3,8,20)             105.4368         estimate D2E/DX2                !
 ! A34   A(3,8,21)             106.1399         estimate D2E/DX2                !
 ! A35   A(9,8,20)             110.9455         estimate D2E/DX2                !
 ! A36   A(9,8,21)             110.9134         estimate D2E/DX2                !
 ! A37   A(20,8,21)            106.0447         estimate D2E/DX2                !
 ! A38   A(8,9,22)             111.958          estimate D2E/DX2                !
 ! A39   A(8,9,23)             109.652          estimate D2E/DX2                !
 ! A40   A(8,9,24)             111.9094         estimate D2E/DX2                !
 ! A41   A(22,9,23)            107.5373         estimate D2E/DX2                !
 ! A42   A(22,9,24)            108.1266         estimate D2E/DX2                !
 ! A43   A(23,9,24)            107.4602         estimate D2E/DX2                !
 ! A44   A(2,25,26)            109.2369         estimate D2E/DX2                !
 ! A45   A(2,25,27)            108.8447         estimate D2E/DX2                !
 ! A46   A(2,25,28)            109.8935         estimate D2E/DX2                !
 ! A47   A(26,25,27)           111.2319         estimate D2E/DX2                !
 ! A48   A(26,25,28)           109.4532         estimate D2E/DX2                !
 ! A49   A(27,25,28)           108.1637         estimate D2E/DX2                !
 ! A50   A(25,26,29)           109.3551         estimate D2E/DX2                !
 ! A51   A(25,26,30)           108.5087         estimate D2E/DX2                !
 ! A52   A(25,26,31)           113.2125         estimate D2E/DX2                !
 ! A53   A(29,26,30)           106.7244         estimate D2E/DX2                !
 ! A54   A(29,26,31)           111.223          estimate D2E/DX2                !
 ! A55   A(30,26,31)           107.5608         estimate D2E/DX2                !
 ! A56   A(26,31,32)           112.8034         estimate D2E/DX2                !
 ! A57   A(26,31,37)           111.1307         estimate D2E/DX2                !
 ! A58   A(32,31,37)           109.1598         estimate D2E/DX2                !
 ! A59   A(31,32,33)           110.3243         estimate D2E/DX2                !
 ! A60   A(31,32,34)           110.9406         estimate D2E/DX2                !
 ! A61   A(31,32,35)           110.0657         estimate D2E/DX2                !
 ! A62   A(33,32,34)           109.2207         estimate D2E/DX2                !
 ! A63   A(33,32,35)           108.5583         estimate D2E/DX2                !
 ! A64   A(34,32,35)           107.6586         estimate D2E/DX2                !
 ! A65   A(32,33,36)           109.5436         estimate D2E/DX2                !
 ! A66   A(32,33,43)           111.6591         estimate D2E/DX2                !
 ! A67   A(32,33,44)           110.334          estimate D2E/DX2                !
 ! A68   A(36,33,43)           109.5885         estimate D2E/DX2                !
 ! A69   A(36,33,44)           108.7011         estimate D2E/DX2                !
 ! A70   A(43,33,44)           106.9417         estimate D2E/DX2                !
 ! A71   A(31,37,38)           111.2444         estimate D2E/DX2                !
 ! A72   A(31,37,39)           109.2464         estimate D2E/DX2                !
 ! A73   A(31,37,40)           110.3947         estimate D2E/DX2                !
 ! A74   A(38,37,39)           107.6812         estimate D2E/DX2                !
 ! A75   A(38,37,40)           108.9703         estimate D2E/DX2                !
 ! A76   A(39,37,40)           109.2433         estimate D2E/DX2                !
 ! A77   A(37,40,41)           110.4492         estimate D2E/DX2                !
 ! A78   A(37,40,42)           109.6122         estimate D2E/DX2                !
 ! A79   A(37,40,43)           111.4326         estimate D2E/DX2                !
 ! A80   A(41,40,42)           108.7041         estimate D2E/DX2                !
 ! A81   A(41,40,43)           106.9624         estimate D2E/DX2                !
 ! A82   A(42,40,43)           109.6105         estimate D2E/DX2                !
 ! A83   A(33,43,40)           110.4036         estimate D2E/DX2                !
 ! A84   L(2,1,3,14,-1)        180.3009         estimate D2E/DX2                !
 ! A85   L(2,1,3,14,-2)        181.2704         estimate D2E/DX2                !
 ! D1    D(25,2,3,4)           -95.8142         estimate D2E/DX2                !
 ! D2    D(25,2,3,6)            24.255          estimate D2E/DX2                !
 ! D3    D(25,2,3,8)           144.6648         estimate D2E/DX2                !
 ! D4    D(1,2,25,26)          173.4671         estimate D2E/DX2                !
 ! D5    D(1,2,25,27)           51.8404         estimate D2E/DX2                !
 ! D6    D(1,2,25,28)          -66.4407         estimate D2E/DX2                !
 ! D7    D(1,3,4,5)             51.9325         estimate D2E/DX2                !
 ! D8    D(1,3,4,10)           175.5655         estimate D2E/DX2                !
 ! D9    D(1,3,4,11)           -69.6044         estimate D2E/DX2                !
 ! D10   D(6,3,4,5)            -72.0344         estimate D2E/DX2                !
 ! D11   D(6,3,4,10)            51.5986         estimate D2E/DX2                !
 ! D12   D(6,3,4,11)           166.4287         estimate D2E/DX2                !
 ! D13   D(8,3,4,5)            175.6751         estimate D2E/DX2                !
 ! D14   D(8,3,4,10)           -60.692          estimate D2E/DX2                !
 ! D15   D(8,3,4,11)            54.1381         estimate D2E/DX2                !
 ! D16   D(1,3,6,7)             58.8657         estimate D2E/DX2                !
 ! D17   D(1,3,6,15)          -177.131          estimate D2E/DX2                !
 ! D18   D(1,3,6,16)           -62.6164         estimate D2E/DX2                !
 ! D19   D(4,3,6,7)           -176.2786         estimate D2E/DX2                !
 ! D20   D(4,3,6,15)           -52.2753         estimate D2E/DX2                !
 ! D21   D(4,3,6,16)            62.2393         estimate D2E/DX2                !
 ! D22   D(8,3,6,7)            -64.7862         estimate D2E/DX2                !
 ! D23   D(8,3,6,15)            59.2171         estimate D2E/DX2                !
 ! D24   D(8,3,6,16)           173.7317         estimate D2E/DX2                !
 ! D25   D(1,3,8,9)           -177.3692         estimate D2E/DX2                !
 ! D26   D(1,3,8,20)            59.0068         estimate D2E/DX2                !
 ! D27   D(1,3,8,21)           -53.2282         estimate D2E/DX2                !
 ! D28   D(4,3,8,9)             57.7489         estimate D2E/DX2                !
 ! D29   D(4,3,8,20)           -65.875          estimate D2E/DX2                !
 ! D30   D(4,3,8,21)          -178.1101         estimate D2E/DX2                !
 ! D31   D(6,3,8,9)            -53.4651         estimate D2E/DX2                !
 ! D32   D(6,3,8,20)          -177.089          estimate D2E/DX2                !
 ! D33   D(6,3,8,21)            70.6759         estimate D2E/DX2                !
 ! D34   D(3,4,5,12)          -177.5369         estimate D2E/DX2                !
 ! D35   D(3,4,5,13)            62.9644         estimate D2E/DX2                !
 ! D36   D(3,4,5,14)           -57.7942         estimate D2E/DX2                !
 ! D37   D(10,4,5,12)           60.2116         estimate D2E/DX2                !
 ! D38   D(10,4,5,13)          -59.2871         estimate D2E/DX2                !
 ! D39   D(10,4,5,14)          179.9543         estimate D2E/DX2                !
 ! D40   D(11,4,5,12)          -58.5348         estimate D2E/DX2                !
 ! D41   D(11,4,5,13)         -178.0335         estimate D2E/DX2                !
 ! D42   D(11,4,5,14)           61.2079         estimate D2E/DX2                !
 ! D43   D(3,6,7,17)          -176.8614         estimate D2E/DX2                !
 ! D44   D(3,6,7,18)            63.5545         estimate D2E/DX2                !
 ! D45   D(3,6,7,19)           -57.1282         estimate D2E/DX2                !
 ! D46   D(15,6,7,17)           60.8039         estimate D2E/DX2                !
 ! D47   D(15,6,7,18)          -58.7802         estimate D2E/DX2                !
 ! D48   D(15,6,7,19)         -179.4629         estimate D2E/DX2                !
 ! D49   D(16,6,7,17)          -57.7572         estimate D2E/DX2                !
 ! D50   D(16,6,7,18)         -177.3413         estimate D2E/DX2                !
 ! D51   D(16,6,7,19)           61.976          estimate D2E/DX2                !
 ! D52   D(3,8,9,22)           -60.7011         estimate D2E/DX2                !
 ! D53   D(3,8,9,23)          -179.9737         estimate D2E/DX2                !
 ! D54   D(3,8,9,24)            60.8808         estimate D2E/DX2                !
 ! D55   D(20,8,9,22)           60.045          estimate D2E/DX2                !
 ! D56   D(20,8,9,23)          -59.2277         estimate D2E/DX2                !
 ! D57   D(20,8,9,24)         -178.3731         estimate D2E/DX2                !
 ! D58   D(21,8,9,22)          177.6313         estimate D2E/DX2                !
 ! D59   D(21,8,9,23)           58.3586         estimate D2E/DX2                !
 ! D60   D(21,8,9,24)          -60.7868         estimate D2E/DX2                !
 ! D61   D(2,25,26,29)         -59.7174         estimate D2E/DX2                !
 ! D62   D(2,25,26,30)          56.3378         estimate D2E/DX2                !
 ! D63   D(2,25,26,31)         175.6631         estimate D2E/DX2                !
 ! D64   D(27,25,26,29)         60.4544         estimate D2E/DX2                !
 ! D65   D(27,25,26,30)        176.5096         estimate D2E/DX2                !
 ! D66   D(27,25,26,31)        -64.1652         estimate D2E/DX2                !
 ! D67   D(28,25,26,29)        179.9202         estimate D2E/DX2                !
 ! D68   D(28,25,26,30)        -64.0246         estimate D2E/DX2                !
 ! D69   D(28,25,26,31)         55.3006         estimate D2E/DX2                !
 ! D70   D(25,26,31,32)         70.9575         estimate D2E/DX2                !
 ! D71   D(25,26,31,37)       -166.0734         estimate D2E/DX2                !
 ! D72   D(29,26,31,32)        -52.6424         estimate D2E/DX2                !
 ! D73   D(29,26,31,37)         70.3267         estimate D2E/DX2                !
 ! D74   D(30,26,31,32)       -169.1739         estimate D2E/DX2                !
 ! D75   D(30,26,31,37)        -46.2048         estimate D2E/DX2                !
 ! D76   D(26,31,32,33)       -179.5994         estimate D2E/DX2                !
 ! D77   D(26,31,32,34)         59.2272         estimate D2E/DX2                !
 ! D78   D(26,31,32,35)        -59.8224         estimate D2E/DX2                !
 ! D79   D(37,31,32,33)         56.3398         estimate D2E/DX2                !
 ! D80   D(37,31,32,34)        -64.8337         estimate D2E/DX2                !
 ! D81   D(37,31,32,35)        176.1168         estimate D2E/DX2                !
 ! D82   D(26,31,37,38)        -60.5177         estimate D2E/DX2                !
 ! D83   D(26,31,37,39)         58.226          estimate D2E/DX2                !
 ! D84   D(26,31,37,40)        178.3748         estimate D2E/DX2                !
 ! D85   D(32,31,37,38)         64.5231         estimate D2E/DX2                !
 ! D86   D(32,31,37,39)       -176.7332         estimate D2E/DX2                !
 ! D87   D(32,31,37,40)        -56.5844         estimate D2E/DX2                !
 ! D88   D(31,32,33,36)         64.0667         estimate D2E/DX2                !
 ! D89   D(31,32,33,43)        -57.5176         estimate D2E/DX2                !
 ! D90   D(31,32,33,44)       -176.3036         estimate D2E/DX2                !
 ! D91   D(34,32,33,36)       -173.7411         estimate D2E/DX2                !
 ! D92   D(34,32,33,43)         64.6746         estimate D2E/DX2                !
 ! D93   D(34,32,33,44)        -54.1114         estimate D2E/DX2                !
 ! D94   D(35,32,33,36)        -56.6168         estimate D2E/DX2                !
 ! D95   D(35,32,33,43)       -178.2011         estimate D2E/DX2                !
 ! D96   D(35,32,33,44)         63.0128         estimate D2E/DX2                !
 ! D97   D(32,33,43,40)         57.5022         estimate D2E/DX2                !
 ! D98   D(36,33,43,40)        -64.0561         estimate D2E/DX2                !
 ! D99   D(44,33,43,40)        178.2875         estimate D2E/DX2                !
 ! D100  D(31,37,40,41)        176.5861         estimate D2E/DX2                !
 ! D101  D(31,37,40,42)        -63.6656         estimate D2E/DX2                !
 ! D102  D(31,37,40,43)         57.8439         estimate D2E/DX2                !
 ! D103  D(38,37,40,41)         54.1346         estimate D2E/DX2                !
 ! D104  D(38,37,40,42)        173.883          estimate D2E/DX2                !
 ! D105  D(38,37,40,43)        -64.6076         estimate D2E/DX2                !
 ! D106  D(39,37,40,41)        -63.2633         estimate D2E/DX2                !
 ! D107  D(39,37,40,42)         56.4851         estimate D2E/DX2                !
 ! D108  D(39,37,40,43)        177.9945         estimate D2E/DX2                !
 ! D109  D(37,40,43,33)        -57.5775         estimate D2E/DX2                !
 ! D110  D(41,40,43,33)       -178.3837         estimate D2E/DX2                !
 ! D111  D(42,40,43,33)         63.933          estimate D2E/DX2                !
 --------------------------------------------------------------------------------
 Trust Radius=3.00D-01 FncErr=1.00D-07 GrdErr=1.00D-06
 Number of steps in this run=    250 maximum allowed number of steps=    264.
 GradGradGradGradGradGradGradGradGradGradGradGradGradGradGradGradGradGrad

                          Input orientation:                          
 ---------------------------------------------------------------------
 Center     Atomic      Atomic             Coordinates (Angstroms)
 Number     Number       Type             X           Y           Z
 ---------------------------------------------------------------------
      1         79           0        1.153963   -0.605899   -0.140844
      2         16           0       -0.888075   -1.718486   -0.299836
      3         15           0        3.189402    0.451119    0.003916
      4          6           0        3.822895    1.078075   -1.594931
      5          6           0        2.822076    1.945251   -2.353841
      6          6           0        3.150710    1.913605    1.104737
      7          6           0        2.730536    1.588597    2.535058
      8          6           0        4.502365   -0.651899    0.648761
      9          6           0        5.883131   -0.031969    0.844063
     10          1           0        4.750593    1.629645   -1.404911
     11          1           0        4.086073    0.191714   -2.183747
     12          1           0        3.243903    2.250657   -3.316339
     13          1           0        2.570078    2.854874   -1.800031
     14          1           0        1.893571    1.398093   -2.546819
     15          1           0        4.138774    2.387807    1.079020
     16          1           0        2.446222    2.618944    0.650909
     17          1           0        2.672314    2.506086    3.128549
     18          1           0        3.445462    0.920994    3.026304
     19          1           0        1.747627    1.106497    2.557508
     20          1           0        4.546347   -1.493813   -0.051919
     21          1           0        4.120756   -1.061386    1.590583
     22          1           0        6.298530    0.345498   -0.094812
     23          1           0        6.574529   -0.787454    1.230505
     24          1           0        5.862490    0.792653    1.563113
     25          6           0       -2.130316   -0.438122    0.115710
     26          6           0       -3.527511   -1.001988   -0.110928
     27          1           0       -1.952736    0.441136   -0.507458
     28          1           0       -2.022777   -0.141206    1.162897
     29          1           0       -3.635150   -1.300859   -1.172365
     30          1           0       -3.635535   -1.915360    0.486672
     31          7           0       -4.586541   -0.088019    0.288869
     32          6           0       -4.708351    1.057214   -0.600010
     33          6           0       -5.819884    1.976223   -0.126566
     34          1           0       -4.921092    0.731956   -1.638577
     35          1           0       -3.771415    1.622585   -0.614532
     36          1           0       -5.559412    2.391762    0.860813
     37          6           0       -5.868156   -0.771664    0.365028
     38          1           0       -6.154679   -1.198586   -0.617106
     39          1           0       -5.793994   -1.599863    1.079164
     40          6           0       -6.952592    0.186899    0.821597
     41          1           0       -7.926871   -0.310115    0.821181
     42          1           0       -6.733080    0.533764    1.844828
     43          8           0       -7.056707    1.298907   -0.044017
     44          1           0       -5.955375    2.802547   -0.830129
 ---------------------------------------------------------------------
                    Distance matrix (angstroms):
                    1          2          3          4          5
     1  Au   0.000000
     2  S    2.330890   0.000000
     3  P    2.298098   4.628744   0.000000
     4  C    3.474671   5.629499   1.830491   0.000000
     5  C    3.766739   5.604206   2.815382   1.526295   0.000000
     6  C    3.447662   5.610409   1.830893   2.904849   3.474300
     7  C    3.802873   5.662841   2.812667   4.302405   4.902746
     8  C    3.440551   5.576225   1.832033   2.913528   4.310937
     9  C    4.864614   7.071215   2.862760   3.380157   4.848303
    10  H    4.419420   6.650244   2.410609   1.095883   2.172384
    11  H    3.661545   5.651560   2.378483   1.096176   2.168297
    12  H    4.755158   6.475078   3.776957   2.161811   1.094355
    13  H    4.090872   5.926637   3.068522   2.183720   1.094359
    14  H    3.217409   4.743369   3.013667   2.175039   1.094872
    15  H    4.399936   6.635669   2.409962   2.994193   3.703253
    16  H    3.563203   5.552905   2.381256   3.051770   3.102201
    17  H    4.762223   6.502092   3.775394   5.066983   5.513036
    18  H    4.196808   6.067092   3.069394   4.639283   5.512139
    19  H    3.250514   4.805400   3.004841   4.642229   5.096989
    20  H    3.507787   5.444711   2.372167   3.085268   4.483204
    21  H    3.465136   5.393872   2.381723   3.848833   5.126882
    22  H    5.232002   7.479930   3.112488   2.985933   4.443890
    23  H    5.594291   7.674583   3.807580   4.362886   5.864820
    24  H    5.199004   7.439525   3.113381   3.770233   5.090690
    25  C    3.298554   1.831713   5.394687   6.376979   6.025391
    26  C    4.698295   2.741474   6.873255   7.781863   7.350791
    27  H    3.298828   2.416729   5.167513   5.911531   5.335759
    28  H    3.465163   2.432067   5.372234   6.577548   6.339823
    29  H    4.947990   2.912411   7.143359   7.839664   7.323174
    30  H    5.004773   2.864593   7.239685   8.301922   8.041988
    31  N    5.779813   4.084562   7.799818   8.696384   8.124390
    32  C    6.110933   4.731715   7.943965   8.589090   7.782793
    33  C    7.436538   6.164709   9.138392   9.795200   8.924415
    34  H    6.398387   4.905315   8.279901   8.750943   7.870218
    35  H    5.426773   4.424414   7.085745   7.676667   6.826671
    36  H    7.420154   6.329505   9.002339   9.786937   8.987920
    37  C    7.042268   5.112702   9.146855  10.058799   9.502316
    38  H    7.348085   5.301705   9.508893  10.280628   9.668614
    39  H    7.123938   5.097426   9.277073  10.334732   9.929251
    40  C    8.201893   6.454957  10.178333  11.079031  10.426857
    41  H    9.136439   7.265317  11.172239  12.075664  11.432729
    42  H    8.212623   6.620899  10.092147  11.115612  10.531957
    43  O    8.429280   6.871836  10.281235  10.991808  10.165796
    44  H    7.914247   6.811643   9.479018   9.958579   8.949877
                    6          7          8          9         10
     6  C    0.000000
     7  C    1.525777   0.000000
     8  C    2.935421   3.423057   0.000000
     9  C    3.364422   3.927411   1.526097   0.000000
    10  H    2.989748   4.427829   3.079712   3.016867   0.000000
    11  H    3.828046   5.104496   2.984641   3.528043   1.765168
    12  H    4.434885   5.911067   5.072532   5.429995   2.511838
    13  H    3.108182   4.519093   4.693375   5.128491   2.532183
    14  H    3.896154   5.153860   4.606518   5.427683   3.085473
    15  H    1.096266   2.177594   3.091461   2.992207   2.668154
    16  H    1.095338   2.166210   3.863437   4.344766   3.242720
    17  H    2.162339   1.094261   4.412630   4.687211   5.063561
    18  H    2.182791   1.094594   3.040353   3.407718   4.673459
    19  H    2.174996   1.095004   3.784687   4.618917   4.999225
    20  H    3.859553   4.414847   1.096224   2.174112   3.410028
    21  H    3.166640   3.138018   1.095597   2.173237   4.075700
    22  H    3.715730   4.603487   2.184928   1.093857   2.400313
    23  H    4.362806   4.703590   2.156540   1.094590   4.014290
    24  H    2.969915   3.374513   2.184653   1.094285   3.278115
    25  C    5.864983   5.795577   6.657500   8.056723   7.344035
    26  C    7.387636   7.271556   8.073326   9.508582   8.782192
    27  H    5.550901   5.701457   6.648300   7.965629   6.866775
    28  H    5.566920   5.241090   6.565259   7.913088   7.457083
    29  H    7.846392   7.913021   8.364018   9.811918   8.886091
    30  H    7.816399   7.549865   8.236991   9.709783   9.299048
    31  N    8.033504   7.835561   9.113490  10.484532   9.643720
    32  C    8.087299   8.089997   9.450809  10.744820   9.510371
    33  C    9.054920   8.963491  10.679746  11.913669  10.653134
    34  H    8.606745   8.757881   9.795331  11.112080   9.716066
    35  H    7.138375   7.224710   8.673213   9.903298   8.558585
    36  H    8.726646   8.495376  10.514190  11.696433  10.583503
    37  C    9.439162   9.177002  10.375093  11.784285  11.029814
    38  H    9.961965   9.831153  10.745877  12.182154  11.293559
    39  H    9.610039   9.217023  10.348859  11.784261  11.304365
    40  C   10.253701   9.932959  11.486927  12.837609  12.000141
    41  H   11.302130  10.960055  12.435130  13.812822  13.016768
    42  H   10.007048   9.547205  11.360968  12.668479  11.984845
    43  O   10.290231  10.125496  11.742986  13.038379  11.890070
    44  H    9.351722   9.393786  11.112364  12.287702  10.785352
                   11         12         13         14         15
    11  H    0.000000
    12  H    2.496249   0.000000
    13  H    3.088349   1.765873   0.000000
    14  H    2.528683   1.772688   1.771317   0.000000
    15  H    3.933351   4.487626   3.311781   4.378034   0.000000
    16  H    4.076252   4.063371   2.465382   3.467184   1.761089
    17  H    5.964522   6.475225   4.941964   5.834714   2.522908
    18  H    5.299704   6.483653   5.272542   5.804799   2.534588
    19  H    5.365133   6.168470   4.766696   5.114732   3.089541
    20  H    2.756364   5.135548   5.086513   4.650254   4.063510
    21  H    3.977063   5.984679   5.407214   5.303535   3.486969
    22  H    3.046681   4.831005   4.806880   5.150142   3.195849
    23  H    4.336854   6.402888   6.203735   6.399700   4.004764
    24  H    4.189958   5.726415   5.138431   5.745469   2.397928
    25  C    6.657904   6.920312   6.050421   5.162597   6.943726
    26  C    7.980486   8.167399   7.410064   6.409531   8.466322
    27  H    6.272111   6.178126   5.287033   4.457447   6.588849
    28  H    6.973443   7.315906   6.232957   5.609743   6.660905
    29  H    7.928931   8.033135   7.494594   6.303985   8.894318
    30  H    8.437661   8.896362   8.154372   7.124047   8.905504
    31  N    9.022545   8.932121   8.015068   7.227829   9.104130
    32  C    8.977706   8.487702   7.592573   6.891418   9.102815
    33  C   10.273483   9.612606   8.600231   8.104890  10.039806
    34  H    9.039806   8.472808   7.787842   6.907118   9.602518
    35  H    8.139407   7.543800   6.567989   5.989674   8.125563
    36  H   10.351084   9.745094   8.566398   8.255077   9.700641
    37  C   10.320418  10.281853   9.436263   8.569195  10.518112
    38  H   10.452765  10.369015   9.692844   8.674149  11.031511
    39  H   10.558033  10.762459   9.904148   9.012999  10.703336
    40  C   11.440465  11.195987  10.230947   9.542946  11.310555
    41  H   12.393234  12.184532  11.272704  10.521525  12.366287
    42  H   11.549913  11.363343  10.257743   9.718680  11.055367
    43  O   11.400257  10.849723   9.908562   9.294156  11.304234
    44  H   10.463241   9.545289   8.580606   8.156315  10.281474
                   16         17         18         19         20
    16  H    0.000000
    17  H    2.490493   0.000000
    18  H    3.086100   1.766558   0.000000
    19  H    2.531926   1.772000   1.771108   0.000000
    20  H    4.671109   5.443029   4.064320   4.626398   0.000000
    21  H    4.151130   4.146104   2.539123   3.356546   1.750981
    22  H    4.534858   5.311086   4.267617   5.322090   2.540679
    23  H    5.383530   5.447684   3.991835   5.352286   2.501415
    24  H    3.979741   3.945081   2.828325   4.244928   3.093297
    25  C    5.529628   6.388334   6.434909   4.835976   6.761687
    26  C    7.026879   7.825511   7.884316   6.276411   8.089039
    27  H    5.043361   6.235034   6.469797   4.850712   6.796295
    28  H    5.277548   5.737231   5.873857   4.209234   6.816063
    29  H    7.461385   8.530814   8.526460   6.977220   8.260116
    30  H    7.587796   8.143565   8.039599   6.511406   8.210419
    31  N    7.544434   8.214873   8.545451   6.833394   9.246731
    32  C    7.429113   8.394975   8.924874   7.186933   9.615486
    33  C    8.327429   9.110102   9.843817   8.076379  10.931856
    34  H    7.942278   9.139630   9.581027   7.887916   9.854133
    35  H    6.422856   7.504190   8.113645   6.386549   8.900204
    36  H    8.011607   8.539146   9.377647   7.610749  10.865410
    37  C    8.983698   9.556167   9.833156   8.144606  10.447833
    38  H    9.495098  10.279608  10.484740   8.822586  10.720007
    39  H    9.267302   9.630014   9.773107   8.147756  10.402560
    40  C    9.709875  10.165602  10.654537   8.919241  11.653902
    41  H   10.780048  11.207036  11.649384   9.930636  12.559642
    42  H    9.488572   9.695330  10.254197   8.529849  11.616118
    43  O    9.619308  10.304189  10.948299   9.182660  11.934413
    44  H    8.533113   9.497159  10.333831   8.584224  11.373235
                   21         22         23         24         25
    21  H    0.000000
    22  H    3.092342   0.000000
    23  H    2.495135   1.765282   0.000000
    24  H    2.543984   1.771664   1.764757   0.000000
    25  C    6.452876   8.467811   8.782888   8.215518   0.000000
    26  C    7.835474   9.918017  10.192972   9.705425   1.523635
    27  H    6.598989   8.262131   8.788868   8.092502   1.092231
    28  H    6.226768   8.429879   8.621826   7.950453   1.093766
    29  H    8.236826  10.126678  10.501186  10.103009   2.160550
    30  H    7.880859  10.204668  10.299071   9.935016   2.141385
    31  N    8.857704  10.900455  11.222539  10.563216   2.487086
    32  C    9.340251  11.041431  11.578297  10.793135   3.065053
    33  C   10.535274  12.227683  12.771101  11.863124   4.415956
    34  H    9.767219  11.331923  11.945273  11.249006   3.497862
    35  H    8.622795  10.163899  10.781976   9.911763   2.733674
    36  H   10.303516  12.071090  12.548969  11.554662   4.508006
    37  C   10.067983  12.226518  12.472759  11.894980   3.760965
    38  H   10.510817  12.559435  12.869166  12.374601   4.160628
    39  H    9.942524  12.304137  12.396099  11.909322   3.962376
    40  C   11.169986  13.283719  13.568330  12.850802   4.913581
    41  H   12.095524  14.269930  14.515027  13.853268   5.840730
    42  H   10.973372  13.176513  13.387138  12.601380   5.011970
    43  O   11.540302  13.389321  13.848751  13.028615   5.226099
    44  H   11.059758  12.519424  13.195939  12.224124   5.101727
                   26         27         28         29         30
    26  C    0.000000
    27  H    2.172501   0.000000
    28  H    2.151232   1.770343   0.000000
    29  H    1.107952   2.511407   3.065614   0.000000
    30  H    1.096833   3.061565   2.491163   1.769185   0.000000
    31  N    1.454896   2.801976   2.709177   2.123989   2.069472
    32  C    2.423612   2.825161   3.428755   2.653273   3.341857
    33  C    3.758319   4.178086   4.534781   4.075049   4.504649
    34  H    2.698581   3.189850   4.124427   2.450171   3.630099
    35  H    2.683559   2.171377   3.054169   2.979307   3.707852
    36  H    4.073137   4.322640   4.360616   4.633794   4.732080
    37  C    2.399625   4.190779   3.977564   2.762235   2.511461
    38  H    2.682700   4.511877   4.621588   2.582014   2.842213
    39  H    2.628825   4.630152   4.044350   3.133591   2.260427
    40  C    3.743559   5.179728   4.952496   4.146653   3.941387
    41  H    4.549932   6.166032   5.916386   4.834736   4.593939
    42  H    4.056993   5.328557   4.807033   4.697496   4.175833
    43  O    4.213528   5.196255   5.373176   4.442860   4.724147
    44  H    4.570149   4.658487   5.301241   4.726363   5.419803
                   31         32         33         34         35
    31  N    0.000000
    32  C    1.454820   0.000000
    33  C    2.440249   1.517970   0.000000
    34  H    2.121163   1.108906   2.154578   0.000000
    35  H    2.099221   1.094397   2.135274   1.778664   0.000000
    36  H    2.724502   2.153910   1.102468   3.067468   2.442378
    37  C    1.454547   2.370916   2.791931   2.678103   3.329908
    38  H    2.124431   2.679700   3.229881   2.508412   3.693096
    39  H    2.090019   3.325403   3.773970   3.685845   4.164565
    40  C    2.440815   2.795538   2.320285   3.236748   3.774063
    41  H    3.389762   3.774685   3.250378   4.021322   4.802543
    42  H    2.723096   3.217260   2.607874   3.931500   4.000680
    43  O    2.852384   2.425349   1.412552   2.724868   3.350134
    44  H    3.388397   2.157362   1.093696   2.451668   2.491681
                   36         37         38         39         40
    36  H    0.000000
    37  C    3.216891   0.000000
    38  H    3.928000   1.108578   0.000000
    39  H    4.004470   1.096086   1.780014   0.000000
    40  C    2.608430   1.517663   2.150837   2.145043   0.000000
    41  H    3.592572   2.158567   2.449227   2.505827   1.093729
    42  H    2.407891   2.154540   3.065404   2.453668   1.102498
    43  O    2.062751   2.422238   2.716534   3.355421   1.413043
    44  H    1.784605   3.769747   4.011754   4.801318   3.250270
                   41         42         43         44
    41  H    0.000000
    42  H    1.784691   0.000000
    43  O    2.023538   2.063471   0.000000
    44  H    4.037609   3.592714   2.022829   0.000000
 Stoichiometry    C12H27AuNOPS
 Framework group  C1[X(C12H27AuNOPS)]
 Deg. of freedom   126
 Full point group                 C1      NOp   1
 Largest Abelian subgroup         C1      NOp   1
 Largest concise Abelian subgroup C1      NOp   1
                         Standard orientation:                         
 ---------------------------------------------------------------------
 Center     Atomic      Atomic             Coordinates (Angstroms)
 Number     Number       Type             X           Y           Z
 ---------------------------------------------------------------------
      1         79           0        1.153963   -0.605899   -0.140844
      2         16           0       -0.888075   -1.718486   -0.299836
      3         15           0        3.189402    0.451119    0.003916
      4          6           0        3.822895    1.078075   -1.594931
      5          6           0        2.822076    1.945251   -2.353841
      6          6           0        3.150710    1.913605    1.104737
      7          6           0        2.730536    1.588597    2.535058
      8          6           0        4.502365   -0.651899    0.648761
      9          6           0        5.883131   -0.031969    0.844063
     10          1           0        4.750593    1.629645   -1.404911
     11          1           0        4.086073    0.191714   -2.183747
     12          1           0        3.243903    2.250657   -3.316339
     13          1           0        2.570078    2.854874   -1.800031
     14          1           0        1.893571    1.398093   -2.546819
     15          1           0        4.138774    2.387807    1.079020
     16          1           0        2.446222    2.618944    0.650909
     17          1           0        2.672314    2.506086    3.128549
     18          1           0        3.445462    0.920994    3.026304
     19          1           0        1.747627    1.106497    2.557508
     20          1           0        4.546347   -1.493813   -0.051919
     21          1           0        4.120756   -1.061386    1.590583
     22          1           0        6.298530    0.345498   -0.094812
     23          1           0        6.574529   -0.787454    1.230505
     24          1           0        5.862490    0.792653    1.563113
     25          6           0       -2.130316   -0.438122    0.115710
     26          6           0       -3.527511   -1.001988   -0.110928
     27          1           0       -1.952736    0.441136   -0.507458
     28          1           0       -2.022777   -0.141206    1.162897
     29          1           0       -3.635150   -1.300859   -1.172365
     30          1           0       -3.635535   -1.915360    0.486672
     31          7           0       -4.586541   -0.088019    0.288869
     32          6           0       -4.708351    1.057214   -0.600010
     33          6           0       -5.819884    1.976223   -0.126566
     34          1           0       -4.921092    0.731956   -1.638577
     35          1           0       -3.771415    1.622585   -0.614532
     36          1           0       -5.559412    2.391762    0.860813
     37          6           0       -5.868156   -0.771664    0.365028
     38          1           0       -6.154679   -1.198586   -0.617106
     39          1           0       -5.793994   -1.599863    1.079164
     40          6           0       -6.952592    0.186899    0.821597
     41          1           0       -7.926871   -0.310115    0.821181
     42          1           0       -6.733080    0.533764    1.844828
     43          8           0       -7.056707    1.298907   -0.044017
     44          1           0       -5.955375    2.802547   -0.830129
 ---------------------------------------------------------------------
 Rotational constants (GHZ):      0.6420034      0.0905751      0.0876144
 General basis read from cards:  (5D, 7F)
 ======================================================================================================
                                       Pseudopotential Parameters
 ======================================================================================================
  Center     Atomic      Valence      Angular      Power
  Number     Number     Electrons     Momentum     of R      Exponent        Coefficient   SO-Coeffient
 ======================================================================================================
    1         79           19
                                      G and up 
                                                     1      622.6287956      -60.00000000    0.00000000
                                                     2      136.2843607     -555.52923120    0.00000000
                                                     2       33.1549781     -168.00197850    0.00000000
                                                     2        9.9894895      -63.03998750    0.00000000
                                                     2        3.0481312       -4.25166810    0.00000000
                                      S - G
                                                     0      194.7374304        3.00000000    0.00000000
                                                     1      351.5327447       38.60208800    0.00000000
                                                     2      122.3270402      864.83707270    0.00000000
                                                     2       32.0914617      374.99355200    0.00000000
                                                     2        5.2451812      289.79101000    0.00000000
                                                     2        4.4916223     -152.45327730    0.00000000
                                      P - G
                                                     0      420.6158801        2.00000000    0.00000000
                                                     1      109.4417815       73.88856250    0.00000000
                                                     2       34.1714280      326.67298720    0.00000000
                                                     2        5.9879750      126.58145910    0.00000000
                                      D - G
                                                     0      219.2666158        3.00000000    0.00000000
                                                     1      122.7297786       55.67931490    0.00000000
                                                     2       63.1063369      449.19873350    0.00000000
                                                     2       18.3684520      215.02690910    0.00000000
                                                     2        4.4972844       64.08409950    0.00000000
                                      F - G
                                                     0      108.5506037        4.00000000    0.00000000
                                                     1       56.4795527       51.80653350    0.00000000
                                                     2       29.2069159      231.21831130    0.00000000
                                                     2        9.5440543      119.00473860    0.00000000
                                                     2        2.8965118       15.34241880    0.00000000
    2         16
                                   No pseudopotential on this center.
    3         15
                                   No pseudopotential on this center.
    4          6
                                   No pseudopotential on this center.
    5          6
                                   No pseudopotential on this center.
    6          6
                                   No pseudopotential on this center.
    7          6
                                   No pseudopotential on this center.
    8          6
                                   No pseudopotential on this center.
    9          6
                                   No pseudopotential on this center.
   10          1
                                   No pseudopotential on this center.
   11          1
                                   No pseudopotential on this center.
   12          1
                                   No pseudopotential on this center.
   13          1
                                   No pseudopotential on this center.
   14          1
                                   No pseudopotential on this center.
   15          1
                                   No pseudopotential on this center.
   16          1
                                   No pseudopotential on this center.
   17          1
                                   No pseudopotential on this center.
   18          1
                                   No pseudopotential on this center.
   19          1
                                   No pseudopotential on this center.
   20          1
                                   No pseudopotential on this center.
   21          1
                                   No pseudopotential on this center.
   22          1
                                   No pseudopotential on this center.
   23          1
                                   No pseudopotential on this center.
   24          1
                                   No pseudopotential on this center.
   25          6
                                   No pseudopotential on this center.
   26          6
                                   No pseudopotential on this center.
   27          1
                                   No pseudopotential on this center.
   28          1
                                   No pseudopotential on this center.
   29          1
                                   No pseudopotential on this center.
   30          1
                                   No pseudopotential on this center.
   31          7
                                   No pseudopotential on this center.
   32          6
                                   No pseudopotential on this center.
   33          6
                                   No pseudopotential on this center.
   34          1
                                   No pseudopotential on this center.
   35          1
                                   No pseudopotential on this center.
   36          1
                                   No pseudopotential on this center.
   37          6
                                   No pseudopotential on this center.
   38          1
                                   No pseudopotential on this center.
   39          1
                                   No pseudopotential on this center.
   40          6
                                   No pseudopotential on this center.
   41          1
                                   No pseudopotential on this center.
   42          1
                                   No pseudopotential on this center.
   43          8
                                   No pseudopotential on this center.
   44          1
                                   No pseudopotential on this center.
 ======================================================================================================
 There are   350 symmetry adapted cartesian basis functions of A   symmetry.
 There are   328 symmetry adapted basis functions of A   symmetry.
   328 basis functions,   652 primitive gaussians,   350 cartesian basis functions
    82 alpha electrons       82 beta electrons
       nuclear repulsion energy      1669.5576121125 Hartrees.
 NAtoms=   44 NActive=   44 NUniq=   44 SFac= 1.00D+00 NAtFMM=   60 NAOKFM=F Big=F
 Integral buffers will be    131072 words long.
 Raffenetti 2 integral format.
 Two-electron integral symmetry is turned on.
 One-electron integrals computed using PRISM.
   1 Symmetry operations used in ECPInt.
 ECPInt:  NShTT=    9045 NPrTT=   48604 LenC2=    7157 LenP2D=   22991.
 LDataN:  DoStor=T MaxTD1= 7 Len=  274
 NBasis=   328 RedAO= T EigKep=  2.43D-03  NBF=   328
 NBsUse=   328 1.00D-06 EigRej= -1.00D+00 NBFU=   328
 Defaulting to unpruned grid for atomic number  79.
 ExpMin= 2.79D-02 ExpMax= 2.19D+04 ExpMxC= 3.30D+03 IAcc=3 IRadAn=         5 AccDes= 0.00D+00
 Harris functional with IExCor=  402 and IRadAn=       5 diagonalized for initial guess.
 HarFok:  IExCor=  402 AccDes= 0.00D+00 IRadAn=         5 IDoV= 1 UseB2=F ITyADJ=14
 ICtDFT=  3500011 ScaDFX=  1.000000  1.000000  1.000000  1.000000
 Defaulting to unpruned grid for atomic number  79.
 Defaulting to unpruned grid for atomic number  79.
 Defaulting to unpruned grid for atomic number  79.
 Defaulting to unpruned grid for atomic number  79.
 Defaulting to unpruned grid for atomic number  79.
 Defaulting to unpruned grid for atomic number  79.
 Defaulting to unpruned grid for atomic number  79.
 Defaulting to unpruned grid for atomic number  79.
 FoFCou: FMM=F IPFlag=           0 FMFlag=      100000 FMFlg1=           0
         NFxFlg=           0 DoJE=T BraDBF=F KetDBF=T FulRan=T
         wScrn=  0.000000 ICntrl=     500 IOpCl=  0 I1Cent=   200000004 NGrid=           0
         NMat0=    1 NMatS0=      1 NMatT0=    0 NMatD0=    1 NMtDS0=    0 NMtDT0=    0
 Petite list used in FoFCou.
 Keep R1 ints in memory in canonical form, NReq=1477665046.
 Requested convergence on RMS density matrix=1.00D-08 within 128 cycles.
 Requested convergence on MAX density matrix=1.00D-06.
 Requested convergence on             energy=1.00D-06.
 No special actions if energy rises.
 Defaulting to unpruned grid for atomic number  79.
 Defaulting to unpruned grid for atomic number  79.
 Defaulting to unpruned grid for atomic number  79.
 Defaulting to unpruned grid for atomic number  79.
 Defaulting to unpruned grid for atomic number  79.
 Defaulting to unpruned grid for atomic number  79.
 Defaulting to unpruned grid for atomic number  79.
 Defaulting to unpruned grid for atomic number  79.
 SCF Done:  E(RB3LYP) =  -1478.57810920     A.U. after   13 cycles
            NFock= 13  Conv=0.75D-08     -V/T= 2.0707

 **********************************************************************

            Population analysis using the SCF density.

 **********************************************************************

 Orbital symmetries:
       Occupied  (A) (A) (A) (A) (A) (A) (A) (A) (A) (A) (A) (A)
                 (A) (A) (A) (A) (A) (A) (A) (A) (A) (A) (A) (A)
                 (A) (A) (A) (A) (A) (A) (A) (A) (A) (A) (A) (A)
                 (A) (A) (A) (A) (A) (A) (A) (A) (A) (A) (A) (A)
                 (A) (A) (A) (A) (A) (A) (A) (A) (A) (A) (A) (A)
                 (A) (A) (A) (A) (A) (A) (A) (A) (A) (A) (A) (A)
                 (A) (A) (A) (A) (A) (A) (A) (A) (A) (A)
       Virtual   (A) (A) (A) (A) (A) (A) (A) (A) (A) (A) (A) (A)
                 (A) (A) (A) (A) (A) (A) (A) (A) (A) (A) (A) (A)
                 (A) (A) (A) (A) (A) (A) (A) (A) (A) (A) (A) (A)
                 (A) (A) (A) (A) (A) (A) (A) (A) (A) (A) (A) (A)
                 (A) (A) (A) (A) (A) (A) (A) (A) (A) (A) (A) (A)
                 (A) (A) (A) (A) (A) (A) (A) (A) (A) (A) (A) (A)
                 (A) (A) (A) (A) (A) (A) (A) (A) (A) (A) (A) (A)
                 (A) (A) (A) (A) (A) (A) (A) (A) (A) (A) (A) (A)
                 (A) (A) (A) (A) (A) (A) (A) (A) (A) (A) (A) (A)
                 (A) (A) (A) (A) (A) (A) (A) (A) (A) (A) (A) (A)
                 (A) (A) (A) (A) (A) (A) (A) (A) (A) (A) (A) (A)
                 (A) (A) (A) (A) (A) (A) (A) (A) (A) (A) (A) (A)
                 (A) (A) (A) (A) (A) (A) (A) (A) (A) (A) (A) (A)
                 (A) (A) (A) (A) (A) (A) (A) (A) (A) (A) (A) (A)
                 (A) (A) (A) (A) (A) (A) (A) (A) (A) (A) (A) (A)
                 (A) (A) (A) (A) (A) (A) (A) (A) (A) (A) (A) (A)
                 (A) (A) (A) (A) (A) (A) (A) (A) (A) (A) (A) (A)
                 (A) (A) (A) (A) (A) (A) (A) (A) (A) (A) (A) (A)
                 (A) (A) (A) (A) (A) (A) (A) (A) (A) (A) (A) (A)
                 (A) (A) (A) (A) (A) (A) (A) (A) (A) (A) (A) (A)
                 (A) (A) (A) (A) (A) (A)
 The electronic state is 1-A.
 Alpha  occ. eigenvalues --  -88.79521 -77.11475 -19.12789 -14.30649 -10.21187
 Alpha  occ. eigenvalues --  -10.21157 -10.21107 -10.20982 -10.20897 -10.20108
 Alpha  occ. eigenvalues --  -10.19431 -10.19293 -10.18661 -10.18655 -10.18155
 Alpha  occ. eigenvalues --  -10.17288  -7.87169  -6.59586  -5.83556  -5.83137
 Alpha  occ. eigenvalues --   -5.82706  -4.75732  -4.75718  -4.75479  -4.15670
 Alpha  occ. eigenvalues --   -2.30281  -2.28249  -2.28078  -1.02607  -0.91204
 Alpha  occ. eigenvalues --   -0.82910  -0.78502  -0.78331  -0.76032  -0.75701
 Alpha  occ. eigenvalues --   -0.69379  -0.68722  -0.65231  -0.64211  -0.64004
 Alpha  occ. eigenvalues --   -0.61999  -0.56663  -0.55670  -0.54938  -0.49607
 Alpha  occ. eigenvalues --   -0.49006  -0.48051  -0.47741  -0.46457  -0.46202
 Alpha  occ. eigenvalues --   -0.45715  -0.45106  -0.44490  -0.43495  -0.43336
 Alpha  occ. eigenvalues --   -0.41041  -0.41028  -0.40679  -0.40030  -0.39983
 Alpha  occ. eigenvalues --   -0.38879  -0.38543  -0.38097  -0.37265  -0.37163
 Alpha  occ. eigenvalues --   -0.36063  -0.34789  -0.34719  -0.34366  -0.34202
 Alpha  occ. eigenvalues --   -0.32657  -0.32104  -0.31191  -0.29528  -0.29142
 Alpha  occ. eigenvalues --   -0.29126  -0.28400  -0.26484  -0.24113  -0.22346
 Alpha  occ. eigenvalues --   -0.20432  -0.17899
 Alpha virt. eigenvalues --   -0.01890  -0.00639   0.02324   0.03563   0.05421
 Alpha virt. eigenvalues --    0.05491   0.07787   0.08654   0.09064   0.10344
 Alpha virt. eigenvalues --    0.10580   0.10791   0.11657   0.11970   0.12460
 Alpha virt. eigenvalues --    0.12675   0.13488   0.14275   0.14346   0.15031
 Alpha virt. eigenvalues --    0.15246   0.15452   0.15649   0.15968   0.16573
 Alpha virt. eigenvalues --    0.16834   0.17678   0.18118   0.18463   0.18716
 Alpha virt. eigenvalues --    0.18846   0.19417   0.19668   0.20194   0.20267
 Alpha virt. eigenvalues --    0.20559   0.21687   0.22100   0.22660   0.23427
 Alpha virt. eigenvalues --    0.23919   0.24117   0.24960   0.26100   0.26856
 Alpha virt. eigenvalues --    0.28736   0.29115   0.29995   0.30692   0.33266
 Alpha virt. eigenvalues --    0.36684   0.37698   0.40152   0.40998   0.41582
 Alpha virt. eigenvalues --    0.42273   0.43011   0.46629   0.47421   0.48604
 Alpha virt. eigenvalues --    0.49478   0.51347   0.52925   0.54075   0.54557
 Alpha virt. eigenvalues --    0.55286   0.56004   0.56691   0.57219   0.57554
 Alpha virt. eigenvalues --    0.57722   0.58512   0.58749   0.59500   0.59847
 Alpha virt. eigenvalues --    0.60588   0.61630   0.61863   0.63478   0.64148
 Alpha virt. eigenvalues --    0.65162   0.66747   0.67077   0.67445   0.69403
 Alpha virt. eigenvalues --    0.69623   0.72124   0.74257   0.74433   0.76810
 Alpha virt. eigenvalues --    0.77748   0.79324   0.80081   0.81443   0.82144
 Alpha virt. eigenvalues --    0.82991   0.83616   0.83881   0.84864   0.85014
 Alpha virt. eigenvalues --    0.85166   0.85197   0.85974   0.86476   0.86945
 Alpha virt. eigenvalues --    0.87303   0.88337   0.88768   0.88823   0.89840
 Alpha virt. eigenvalues --    0.90183   0.91432   0.91748   0.92304   0.92458
 Alpha virt. eigenvalues --    0.92946   0.93812   0.94195   0.94874   0.95672
 Alpha virt. eigenvalues --    0.96113   0.96343   0.96839   0.97787   0.98621
 Alpha virt. eigenvalues --    0.99191   0.99256   0.99953   1.00932   1.01382
 Alpha virt. eigenvalues --    1.02052   1.02988   1.03482   1.03700   1.04991
 Alpha virt. eigenvalues --    1.06613   1.08153   1.12118   1.12629   1.15863
 Alpha virt. eigenvalues --    1.17749   1.20253   1.24989   1.25922   1.31477
 Alpha virt. eigenvalues --    1.36116   1.37000   1.39096   1.39732   1.43105
 Alpha virt. eigenvalues --    1.45156   1.47791   1.48953   1.50174   1.50753
 Alpha virt. eigenvalues --    1.53184   1.54250   1.56737   1.59724   1.65385
 Alpha virt. eigenvalues --    1.65945   1.68536   1.68932   1.71186   1.72187
 Alpha virt. eigenvalues --    1.74385   1.78028   1.83158   1.83650   1.84777
 Alpha virt. eigenvalues --    1.85748   1.85928   1.89894   1.90836   1.92063
 Alpha virt. eigenvalues --    1.92226   1.94564   1.94744   1.95629   1.96249
 Alpha virt. eigenvalues --    1.96577   1.97046   1.97149   1.98786   1.99233
 Alpha virt. eigenvalues --    1.99686   2.00541   2.00962   2.01731   2.01812
 Alpha virt. eigenvalues --    2.02456   2.02798   2.03056   2.03617   2.04298
 Alpha virt. eigenvalues --    2.04472   2.05531   2.06886   2.09487   2.10575
 Alpha virt. eigenvalues --    2.12438   2.13063   2.14206   2.16679   2.16859
 Alpha virt. eigenvalues --    2.17357   2.18658   2.20854   2.24359   2.25806
 Alpha virt. eigenvalues --    2.27138   2.27398   2.27987   2.28717   2.29520
 Alpha virt. eigenvalues --    2.30389   2.31023   2.31522   2.31692   2.32398
 Alpha virt. eigenvalues --    2.32702   2.33169   2.33579   2.34678   2.39566
 Alpha virt. eigenvalues --    2.45225   2.47386   2.47735   2.51824   2.58256
 Alpha virt. eigenvalues --    2.59418   2.59822   2.62238   2.62943   2.65287
 Alpha virt. eigenvalues --    2.68238   2.73808   2.81489   2.85477   2.89642
 Alpha virt. eigenvalues --    2.95399   2.96090  15.60553  15.60684  15.69966
 Alpha virt. eigenvalues --   43.15478
          Condensed to atoms (all electrons):
               1          2          3          4          5          6
     1  Au  18.545200   0.346604   0.337491  -0.031588  -0.000776  -0.030490
     2  S    0.346604  15.722063  -0.002120   0.000003  -0.000081   0.000010
     3  P    0.337491  -0.002120  13.587368   0.313876  -0.038560   0.323415
     4  C   -0.031588   0.000003   0.313876   5.235201   0.367066  -0.032830
     5  C   -0.000776  -0.000081  -0.038560   0.367066   5.064164  -0.002156
     6  C   -0.030490   0.000010   0.323415  -0.032830  -0.002156   5.220097
     7  C   -0.000955  -0.000060  -0.038272   0.001826   0.000074   0.364346
     8  C   -0.028077   0.000011   0.308436  -0.031570   0.001789  -0.027599
     9  C    0.001633   0.000000  -0.025429  -0.004311   0.000089  -0.004113
    10  H    0.003401  -0.000002  -0.030056   0.357435  -0.033260  -0.004948
    11  H   -0.001988  -0.000020  -0.029838   0.370042  -0.028365   0.002173
    12  H   -0.000501   0.000000   0.004935  -0.029000   0.373378  -0.000017
    13  H   -0.000126  -0.000007  -0.005998  -0.038433   0.381338   0.001659
    14  H    0.011620  -0.000120  -0.010664  -0.031909   0.384281  -0.000077
    15  H    0.003802  -0.000002  -0.031831  -0.002738  -0.000173   0.357137
    16  H   -0.003902  -0.000021  -0.033597  -0.001628   0.001247   0.373082
    17  H   -0.000431   0.000000   0.005107  -0.000062   0.000000  -0.028487
    18  H   -0.000663  -0.000004  -0.006736   0.000005  -0.000001  -0.038189
    19  H    0.010786  -0.000129  -0.010125   0.000019  -0.000005  -0.032753
    20  H   -0.000210  -0.000020  -0.031432  -0.003068   0.000011   0.002215
    21  H   -0.000360  -0.000029  -0.031113   0.002037  -0.000026  -0.002379
    22  H    0.000544   0.000000  -0.007428   0.002258  -0.000020  -0.000270
    23  H    0.000030   0.000000   0.004425   0.000035   0.000000   0.000059
    24  H    0.000114   0.000000  -0.007796  -0.000290  -0.000007   0.001692
    25  C   -0.022532   0.242477   0.000063   0.000000   0.000000  -0.000003
    26  C   -0.002972  -0.045942   0.000002   0.000000   0.000000   0.000000
    27  H   -0.001831  -0.051919  -0.000043   0.000001   0.000002   0.000000
    28  H    0.002785  -0.047821  -0.000059   0.000000   0.000000   0.000002
    29  H    0.004811   0.005559   0.000000   0.000000   0.000000   0.000000
    30  H    0.001168   0.001094   0.000000   0.000000   0.000000   0.000000
    31  N    0.001550   0.003977   0.000000   0.000000   0.000000   0.000000
    32  C   -0.000071   0.000033   0.000000   0.000000   0.000000   0.000000
    33  C   -0.000177  -0.000003   0.000000   0.000000   0.000000   0.000000
    34  H    0.000979   0.000052   0.000000   0.000000   0.000000   0.000000
    35  H    0.000282  -0.000231   0.000000   0.000000   0.000000   0.000000
    36  H    0.000150   0.000000   0.000000   0.000000   0.000000   0.000000
    37  C   -0.000302  -0.000208   0.000000   0.000000   0.000000   0.000000
    38  H    0.000345   0.000034   0.000000   0.000000   0.000000   0.000000
    39  H   -0.000095  -0.000044   0.000000   0.000000   0.000000   0.000000
    40  C   -0.000002   0.000005   0.000000   0.000000   0.000000   0.000000
    41  H    0.000006   0.000000   0.000000   0.000000   0.000000   0.000000
    42  H    0.000044   0.000000   0.000000   0.000000   0.000000   0.000000
    43  O    0.000002   0.000000   0.000000   0.000000   0.000000   0.000000
    44  H    0.000030   0.000000   0.000000   0.000000   0.000000   0.000000
               7          8          9         10         11         12
     1  Au  -0.000955  -0.028077   0.001633   0.003401  -0.001988  -0.000501
     2  S   -0.000060   0.000011   0.000000  -0.000002  -0.000020   0.000000
     3  P   -0.038272   0.308436  -0.025429  -0.030056  -0.029838   0.004935
     4  C    0.001826  -0.031570  -0.004311   0.357435   0.370042  -0.029000
     5  C    0.000074   0.001789   0.000089  -0.033260  -0.028365   0.373378
     6  C    0.364346  -0.027599  -0.004113  -0.004948   0.002173  -0.000017
     7  C    5.065168  -0.001587  -0.000840   0.000004  -0.000030   0.000000
     8  C   -0.001587   5.243246   0.348485  -0.003027  -0.001415  -0.000060
     9  C   -0.000840   0.348485   5.061814   0.001382  -0.000193   0.000000
    10  H    0.000004  -0.003027   0.001382   0.567441  -0.029616  -0.003799
    11  H   -0.000030  -0.001415  -0.000193  -0.029616   0.534971  -0.005228
    12  H    0.000000  -0.000060   0.000000  -0.003799  -0.005228   0.556324
    13  H   -0.000021   0.000019  -0.000005  -0.003320   0.004588  -0.030477
    14  H   -0.000005   0.000019  -0.000002   0.003989  -0.003356  -0.026669
    15  H   -0.032466  -0.005269   0.002236   0.003767   0.000002  -0.000006
    16  H   -0.027649   0.002325   0.000022  -0.000290   0.000036  -0.000060
    17  H    0.373900   0.000001  -0.000002  -0.000003   0.000001   0.000000
    18  H    0.381903   0.002044   0.000335   0.000001   0.000000   0.000000
    19  H    0.384577  -0.000218   0.000022   0.000001   0.000000   0.000000
    20  H    0.000045   0.373657  -0.032662  -0.000159   0.001837  -0.000003
    21  H    0.001430   0.374332  -0.033652  -0.000029   0.000031   0.000001
    22  H    0.000044  -0.036130   0.382256   0.003283   0.000401   0.000004
    23  H   -0.000005  -0.029382   0.377629  -0.000059  -0.000019   0.000000
    24  H    0.000464  -0.036383   0.382452   0.000086   0.000030   0.000000
    25  C   -0.000001   0.000000   0.000000   0.000000   0.000000   0.000000
    26  C    0.000000   0.000000   0.000000   0.000000   0.000000   0.000000
    27  H    0.000000   0.000000   0.000000   0.000000   0.000000   0.000000
    28  H    0.000002   0.000000   0.000000   0.000000   0.000000   0.000000
    29  H    0.000000   0.000000   0.000000   0.000000   0.000000   0.000000
    30  H    0.000000   0.000000   0.000000   0.000000   0.000000   0.000000
    31  N    0.000000   0.000000   0.000000   0.000000   0.000000   0.000000
    32  C    0.000000   0.000000   0.000000   0.000000   0.000000   0.000000
    33  C    0.000000   0.000000   0.000000   0.000000   0.000000   0.000000
    34  H    0.000000   0.000000   0.000000   0.000000   0.000000   0.000000
    35  H    0.000000   0.000000   0.000000   0.000000   0.000000   0.000000
    36  H    0.000000   0.000000   0.000000   0.000000   0.000000   0.000000
    37  C    0.000000   0.000000   0.000000   0.000000   0.000000   0.000000
    38  H    0.000000   0.000000   0.000000   0.000000   0.000000   0.000000
    39  H    0.000000   0.000000   0.000000   0.000000   0.000000   0.000000
    40  C    0.000000   0.000000   0.000000   0.000000   0.000000   0.000000
    41  H    0.000000   0.000000   0.000000   0.000000   0.000000   0.000000
    42  H    0.000000   0.000000   0.000000   0.000000   0.000000   0.000000
    43  O    0.000000   0.000000   0.000000   0.000000   0.000000   0.000000
    44  H    0.000000   0.000000   0.000000   0.000000   0.000000   0.000000
              13         14         15         16         17         18
     1  Au  -0.000126   0.011620   0.003802  -0.003902  -0.000431  -0.000663
     2  S   -0.000007  -0.000120  -0.000002  -0.000021   0.000000  -0.000004
     3  P   -0.005998  -0.010664  -0.031831  -0.033597   0.005107  -0.006736
     4  C   -0.038433  -0.031909  -0.002738  -0.001628  -0.000062   0.000005
     5  C    0.381338   0.384281  -0.000173   0.001247   0.000000  -0.000001
     6  C    0.001659  -0.000077   0.357137   0.373082  -0.028487  -0.038189
     7  C   -0.000021  -0.000005  -0.032466  -0.027649   0.373900   0.381903
     8  C    0.000019   0.000019  -0.005269   0.002325   0.000001   0.002044
     9  C   -0.000005  -0.000002   0.002236   0.000022  -0.000002   0.000335
    10  H   -0.003320   0.003989   0.003767  -0.000290  -0.000003   0.000001
    11  H    0.004588  -0.003356   0.000002   0.000036   0.000001   0.000000
    12  H   -0.030477  -0.026669  -0.000006  -0.000060   0.000000   0.000000
    13  H    0.560233  -0.028798   0.000218   0.003174   0.000003   0.000001
    14  H   -0.028798   0.491046   0.000004  -0.000015   0.000000   0.000000
    15  H    0.000218   0.000004   0.568612  -0.030318  -0.003993  -0.003769
    16  H    0.003174  -0.000015  -0.030318   0.531873  -0.004925   0.004548
    17  H    0.000003   0.000000  -0.003993  -0.004925   0.554862  -0.030465
    18  H    0.000001   0.000000  -0.003769   0.004548  -0.030465   0.559802
    19  H    0.000001  -0.000001   0.004130  -0.003286  -0.027061  -0.028506
    20  H    0.000002  -0.000003  -0.000017  -0.000027   0.000001   0.000002
    21  H    0.000001  -0.000001  -0.000165   0.000011  -0.000044   0.001680
    22  H    0.000003   0.000000   0.000036  -0.000012   0.000000  -0.000007
    23  H    0.000000   0.000000  -0.000089   0.000001   0.000000  -0.000025
    24  H    0.000000   0.000000   0.002829   0.000014  -0.000012   0.001336
    25  C    0.000000  -0.000004   0.000000  -0.000001   0.000000   0.000000
    26  C    0.000000   0.000000   0.000000   0.000000   0.000000   0.000000
    27  H    0.000001  -0.000005   0.000000   0.000000   0.000000   0.000000
    28  H    0.000000   0.000000   0.000000   0.000001   0.000000   0.000000
    29  H    0.000000   0.000000   0.000000   0.000000   0.000000   0.000000
    30  H    0.000000   0.000000   0.000000   0.000000   0.000000   0.000000
    31  N    0.000000   0.000000   0.000000   0.000000   0.000000   0.000000
    32  C    0.000000   0.000000   0.000000   0.000000   0.000000   0.000000
    33  C    0.000000   0.000000   0.000000   0.000000   0.000000   0.000000
    34  H    0.000000   0.000000   0.000000   0.000000   0.000000   0.000000
    35  H    0.000000   0.000000   0.000000   0.000000   0.000000   0.000000
    36  H    0.000000   0.000000   0.000000   0.000000   0.000000   0.000000
    37  C    0.000000   0.000000   0.000000   0.000000   0.000000   0.000000
    38  H    0.000000   0.000000   0.000000   0.000000   0.000000   0.000000
    39  H    0.000000   0.000000   0.000000   0.000000   0.000000   0.000000
    40  C    0.000000   0.000000   0.000000   0.000000   0.000000   0.000000
    41  H    0.000000   0.000000   0.000000   0.000000   0.000000   0.000000
    42  H    0.000000   0.000000   0.000000   0.000000   0.000000   0.000000
    43  O    0.000000   0.000000   0.000000   0.000000   0.000000   0.000000
    44  H    0.000000   0.000000   0.000000   0.000000   0.000000   0.000000
              19         20         21         22         23         24
     1  Au   0.010786  -0.000210  -0.000360   0.000544   0.000030   0.000114
     2  S   -0.000129  -0.000020  -0.000029   0.000000   0.000000   0.000000
     3  P   -0.010125  -0.031432  -0.031113  -0.007428   0.004425  -0.007796
     4  C    0.000019  -0.003068   0.002037   0.002258   0.000035  -0.000290
     5  C   -0.000005   0.000011  -0.000026  -0.000020   0.000000  -0.000007
     6  C   -0.032753   0.002215  -0.002379  -0.000270   0.000059   0.001692
     7  C    0.384577   0.000045   0.001430   0.000044  -0.000005   0.000464
     8  C   -0.000218   0.373657   0.374332  -0.036130  -0.029382  -0.036383
     9  C    0.000022  -0.032662  -0.033652   0.382256   0.377629   0.382452
    10  H    0.000001  -0.000159  -0.000029   0.003283  -0.000059   0.000086
    11  H    0.000000   0.001837   0.000031   0.000401  -0.000019   0.000030
    12  H    0.000000  -0.000003   0.000001   0.000004   0.000000   0.000000
    13  H    0.000001   0.000002   0.000001   0.000003   0.000000   0.000000
    14  H   -0.000001  -0.000003  -0.000001   0.000000   0.000000   0.000000
    15  H    0.004130  -0.000017  -0.000165   0.000036  -0.000089   0.002829
    16  H   -0.003286  -0.000027   0.000011  -0.000012   0.000001   0.000014
    17  H   -0.027061   0.000001  -0.000044   0.000000   0.000000  -0.000012
    18  H   -0.028506   0.000002   0.001680  -0.000007  -0.000025   0.001336
    19  H    0.494436  -0.000007  -0.000079  -0.000002   0.000000  -0.000010
    20  H   -0.000007   0.523360  -0.025362  -0.003085  -0.004059   0.004374
    21  H   -0.000079  -0.025362   0.518349   0.004314  -0.004055  -0.003350
    22  H   -0.000002  -0.003085   0.004314   0.555822  -0.029762  -0.030853
    23  H    0.000000  -0.004059  -0.004055  -0.029762   0.548410  -0.029885
    24  H   -0.000010   0.004374  -0.003350  -0.030853  -0.029885   0.556441
    25  C   -0.000006   0.000000   0.000000   0.000000   0.000000   0.000000
    26  C    0.000000   0.000000   0.000000   0.000000   0.000000   0.000000
    27  H   -0.000003   0.000000   0.000000   0.000000   0.000000   0.000000
    28  H    0.000012   0.000000   0.000000   0.000000   0.000000   0.000000
    29  H    0.000000   0.000000   0.000000   0.000000   0.000000   0.000000
    30  H    0.000000   0.000000   0.000000   0.000000   0.000000   0.000000
    31  N    0.000000   0.000000   0.000000   0.000000   0.000000   0.000000
    32  C    0.000000   0.000000   0.000000   0.000000   0.000000   0.000000
    33  C    0.000000   0.000000   0.000000   0.000000   0.000000   0.000000
    34  H    0.000000   0.000000   0.000000   0.000000   0.000000   0.000000
    35  H    0.000000   0.000000   0.000000   0.000000   0.000000   0.000000
    36  H    0.000000   0.000000   0.000000   0.000000   0.000000   0.000000
    37  C    0.000000   0.000000   0.000000   0.000000   0.000000   0.000000
    38  H    0.000000   0.000000   0.000000   0.000000   0.000000   0.000000
    39  H    0.000000   0.000000   0.000000   0.000000   0.000000   0.000000
    40  C    0.000000   0.000000   0.000000   0.000000   0.000000   0.000000
    41  H    0.000000   0.000000   0.000000   0.000000   0.000000   0.000000
    42  H    0.000000   0.000000   0.000000   0.000000   0.000000   0.000000
    43  O    0.000000   0.000000   0.000000   0.000000   0.000000   0.000000
    44  H    0.000000   0.000000   0.000000   0.000000   0.000000   0.000000
              25         26         27         28         29         30
     1  Au  -0.022532  -0.002972  -0.001831   0.002785   0.004811   0.001168
     2  S    0.242477  -0.045942  -0.051919  -0.047821   0.005559   0.001094
[...]
 0.00526158,-0.00518253,0.00348036,0.02595157,-0.02691100,-0.09735681,0
 .02070537,-0.02054227,-0.01134931,-0.01985647,0.01797726,0.00774818,-0
 .01287682,0.03351728,0.52706229,0.00005267,0.00008472,0.00000716,-0.00
 024906,-0.00006995,-0.00001867,0.00012203,0.00003620,0.00001046,-0.000
 03701,-0.00001678,-0.00001940,0.00000192,0.00000808,0.00000228,-0.0000
 4368,-0.00000506,0.00000528,0.00000805,-0.00000305,0.00000425,-0.00002
 879,-0.00003106,0.00000288,-0.00000136,0.00002233,-0.00000477,-0.00001
 165,-0.00000985,0.00001499,0.00000435,0.00000230,-0.00000134,-0.000003
 79,-0.00000368,0.00000539,0.00000212,0.00000057,-0.00000236,-0.0000017
 0,0.00000042,-0.00000884,-0.00000496,-0.00001624,-0.00001265,0.0000039
 5,0.00000615,0.00000023,-0.00000090,-0.00000535,-0.00000482,-0.0000035
 6,0.00000384,0.00000029,-0.00000370,0.00000101,0.00000748,0.00000260,-
 0.00000197,0.00000014,0.00000312,-0.00000283,0.00000270,0.00000044,-0.
 00000335,0.00000198,-0.00001237,0.00000058,-0.00000301,0.00000131,-0.0
 0000369,0.00000013,-0.00001995,0.00025667,0.00013792,-0.00011670,-0.00
 114837,0.00085844,-0.00002467,-0.00000665,0.00001139,-0.00000184,0.000
 00052,-0.00000725,-0.00026476,0.00022167,0.00020404,0.00003282,-0.0000
 1787,-0.00006650,-0.00326075,0.00493017,0.00129264,0.00015869,0.000628
 44,-0.00090947,0.00149896,0.00165012,-0.00121536,0.00002655,-0.0000799
 3,0.00020614,0.00000141,-0.00010803,0.00003350,0.00009552,0.00014438,-
 0.00000275,-0.01719206,-0.01299357,0.00160910,0.00115417,0.00011723,0.
 00039664,0.00016298,0.00020445,-0.00050549,-0.25851613,-0.10509200,0.0
 4292518,0.27267993,-0.00000649,-0.00004464,-0.00000729,0.00014718,0.00
 007244,0.00000912,-0.00002398,-0.00000561,0.00000091,0.00000897,0.0000
 0535,0.00000647,0.00000266,-0.00000207,-0.00000256,0.00001649,0.000001
 82,-0.00000162,-0.00000014,0.00000259,-0.00000127,0.00000562,0.0000074
 1,-0.00000088,0.00000053,-0.00000374,0.00000064,0.00000176,0.00000250,
 -0.00000555,-0.00000125,0.00000058,0.00000041,0.00000073,0.00000160,-0
 .00000123,0.00000117,0.00000164,0.00000212,0.00000050,-0.00000346,0.00
 000199,0.00000003,0.00000523,0.00000521,0.00000002,0.00000047,-0.00000
 114,0.00000209,0.00000133,0.00000266,-0.00000155,0.00000053,-0.0000003
 4,0.00000110,-0.00000364,-0.00000184,-0.00000126,0.00000026,0.00000020
 ,-0.00000116,0.00000003,-0.00000095,0.00000041,0.00000035,-0.00000033,
 0.00000147,0.00000051,0.00000026,0.00000034,0.00000060,0.00000038,0.00
 014218,-0.00037317,-0.00012585,0.00097512,0.00103799,-0.00045907,0.000
 01456,0.00003898,-0.00003558,-0.00000046,0.00000118,0.00001642,0.00007
 601,-0.00008737,-0.00007451,-0.00005956,0.00002879,0.00005167,0.003754
 96,-0.00329336,-0.00131792,0.00012883,-0.00100203,0.00036368,0.0032273
 6,-0.00184826,0.00314174,-0.00008416,0.00017182,-0.00010552,-0.0001094
 0,0.00019780,-0.00007616,0.00015424,0.00015120,-0.00013943,0.01870626,
 0.01337345,-0.00441038,-0.00080549,0.00078127,0.00010920,-0.00089606,0
 .00066509,0.00059863,-0.09912617,-0.10111012,0.01672809,0.11124545,0.1
 1544909,-0.00000364,-0.00002017,-0.00000530,0.00005748,0.00001255,0.00
 001179,-0.00001947,-0.00000221,-0.00000198,0.00000531,0.00000267,0.000
 00270,-0.00000135,-0.00000152,0.00000024,0.00000709,0.00000102,-0.0000
 0093,0.00000023,0.00000157,-0.00000078,0.00000402,0.00000471,0.0000000
 3,0.00000024,-0.00000358,0.00000058,0.00000203,0.00000109,-0.00000176,
 -0.00000051,-0.00000077,0.00000034,0.00000050,0.00000043,-0.00000049,-
 0.00000072,-0.00000040,-0.00000036,0.00000011,0.00000113,0.00000121,0.
 00000044,0.00000273,0.00000274,-0.00000030,-0.00000119,-0.00000042,0.0
 0000051,0.00000108,0.00000105,0.00000016,-0.00000068,0.00000026,0.0000
 0055,-0.00000093,-0.00000187,-0.00000046,0.00000032,-0.00000007,-0.000
 00023,0.00000013,-0.00000026,-0.00000024,0.00000057,-0.00000017,0.0000
 0201,-0.00000011,0.00000056,-0.00000014,0.00000062,-0.00000009,0.00008
 621,-0.00010179,-0.00011687,0.00049099,0.00039223,0.00026185,-0.000005
 00,-0.00001087,0.00001527,0.00000658,-0.00000699,0.00001524,-0.0000741
 0,0.00008848,0.00000690,0.00001639,0.00000258,0.00000869,0.00023210,-0
 .00192918,0.00084547,-0.00022704,0.00038319,0.00003751,-0.00279486,0.0
 0227535,-0.00284570,0.00001375,-0.00005470,0.00003977,0.00008058,-0.00
 013163,0.00000652,0.00042492,0.00045122,0.00022101,0.01032933,0.003874
 42,-0.00188367,-0.00028088,0.00048922,-0.00000229,-0.00013049,-0.00026
 541,0.00022695,0.03439750,0.01406730,-0.05882399,-0.04554791,-0.029370
 64,0.06658942,-0.00000995,-0.00001431,0.00000227,0.00005676,-0.0000118
 7,0.00000614,-0.00002382,-0.00000702,-0.00000792,0.00000674,0.00000343
 ,0.00000337,-0.00000217,-0.00000184,0.00000027,0.00000650,0.00000092,-
 0.00000040,-0.00000113,0.00000088,-0.00000097,0.00000525,0.00000589,0.
 00000045,0.00000032,-0.00000472,0.00000061,0.00000274,0.00000140,-0.00
 000196,-0.00000091,-0.00000094,0.00000067,0.00000034,-0.00000004,-0.00
 000041,-0.00000097,-0.00000034,-0.00000021,0.00000046,0.00000160,0.000
 00095,0.00000084,0.00000259,0.00000247,-0.00000080,-0.00000193,-0.0000
 0008,0.00000041,0.00000185,0.00000125,0.00000134,-0.00000112,0.0000001
 1,0.00000038,-0.00000006,-0.00000259,-0.00000055,0.00000078,-0.0000001
 8,-0.00000016,0.,-0.00000020,-0.00000044,0.00000053,-0.00000004,0.0000
 0269,-0.00000025,0.00000051,-0.00000024,0.00000111,0.,-0.00001468,-0.0
 0004832,-0.00006775,-0.00031433,0.00026442,-0.00003530,-0.00003349,-0.
 00002764,0.00001281,-0.00002809,-0.00001932,-0.00000848,0.00001507,-0.
 00013936,-0.00022499,0.00007253,-0.00004558,0.00004351,0.00217166,0.00
 006611,-0.00049208,-0.00005137,0.00032667,0.00009114,0.00000306,0.0000
 6801,0.00259585,-0.00013207,-0.00014882,-0.00020332,0.00003182,-0.0000
 8578,0.00000296,0.00106794,0.00056931,-0.00053044,0.00650963,0.0134835
 6,0.01981492,-0.00286742,0.00297747,0.00181904,0.00092426,-0.00087280,
 -0.00049903,-0.07937180,-0.04158225,-0.05968380,-0.00703465,-0.0144200
 7,-0.02249216,0.07910276,-0.00002472,-0.00001672,-0.00000039,0.0000658
 5,0.00003013,0.00001604,-0.00003146,-0.00002183,-0.00001171,0.00001050
 ,0.00000777,0.00000747,-0.00000126,-0.00000353,-0.00000193,0.00001418,
 0.00000160,-0.00000139,0.00000146,0.00000483,-0.00000147,0.00000908,0.
 00001131,0.00000090,0.00000084,-0.00000680,0.00000050,0.00000370,0.000
 00250,-0.00000483,-0.00000241,-0.00000038,0.00000168,0.00000037,0.0000
 0048,-0.00000067,0.00000031,0.00000176,0.00000161,0.00000115,-0.000001
 01,0.00000120,-0.00000008,0.00000524,0.00000641,0.00000005,-0.00000075
 ,-0.00000115,0.00000291,0.00000357,0.00000402,-0.00000086,-0.00000049,
 -0.00000028,0.00000119,-0.00000456,-0.00000529,-0.00000196,0.00000134,
 0.00000032,-0.00000065,-0.00000091,-0.00000101,-0.00000015,0.00000041,
 -0.00000001,0.00000298,0.00000027,0.00000033,0.00000045,0.00000189,0.0
 0000070,-0.00001220,-0.00001641,0.00000650,0.00021725,0.00009426,0.000
 26708,0.00002631,0.00002692,-0.00000875,0.00005604,0.00002722,0.000017
 89,-0.00022604,0.00011090,0.00017615,-0.00006686,0.00001245,-0.0000630
 2,-0.00059312,0.00193436,0.00169423,-0.00038517,-0.00062896,-0.0000831
 7,0.00470671,0.00375230,0.00114803,-0.00008444,-0.00026257,0.00004832,
 -0.00017462,0.00022166,-0.00006698,-0.00005279,0.00002787,-0.00176487,
 -0.00860714,-0.01345849,-0.02071563,0.00448343,-0.00240325,-0.00170352
 ,-0.00055085,0.00042347,0.00045707,-0.04151449,-0.11413674,-0.09897866
 ,-0.00330679,-0.00575230,-0.01123171,0.03786521,0.12241216,-0.00001739
 ,-0.00001203,0.00000392,0.00003634,0.00000807,0.00003440,-0.00002299,-
 0.00001615,-0.00001708,0.00000769,0.00000676,0.00000562,-0.00000364,-0
 .00000354,-0.00000068,0.00000913,0.00000088,-0.00000031,0.00000277,0.0
 0000533,-0.00000148,0.00000652,0.00000882,0.00000252,0.00000081,-0.000
 00573,-0.00000017,0.00000359,0.00000113,-0.00000257,-0.00000192,-0.000
 00087,0.00000175,-0.00000036,-0.00000046,0.00000052,-0.00000027,0.0000
 0124,0.00000027,0.00000091,0.00000157,-0.00000017,-0.00000065,0.000003
 70,0.00000549,0.00000063,-0.00000118,-0.00000162,0.00000309,0.00000371
 ,0.00000399,-0.00000091,-0.00000061,0.00000020,0.00000079,-0.00000473,
 -0.00000548,-0.00000157,0.00000152,0.00000006,0.00000010,-0.00000142,-
 0.00000033,-0.00000059,0.00000022,0.00000045,0.00000264,0.00000012,0.0
 0000028,0.00000044,0.00000184,0.00000056,0.00001539,0.00001809,-0.0000
 7708,0.00020850,-0.00003149,0.00021646,-0.00000444,-0.00002108,0.00002
 743,0.00004100,0.00001765,0.00003277,-0.00014877,0.00012482,0.00013286
 ,-0.00002019,-0.00001633,-0.00002660,-0.00076530,0.00098597,0.00076750
 ,0.00036284,0.00086908,-0.00043781,-0.00538362,-0.00427049,0.00112725,
 -0.00017217,0.00002870,0.00028637,0.00026506,-0.00012217,-0.00003267,0
 .00171403,0.00128586,0.00056361,-0.00415373,-0.00809910,-0.00744290,0.
 00127463,-0.00128330,0.00057502,0.00052771,-0.00040268,0.00060274,-0.0
 5564581,-0.09824081,-0.20292314,0.00137233,0.00204147,0.00732524,0.070
 92539,0.10017164,0.23393226,0.00013689,0.00009796,0.00001288,-0.000258
 76,0.00020607,-0.00008681,0.00031810,0.00010564,0.00002950,-0.00008381
 ,-0.00003591,-0.00003649,0.00001932,0.00002136,-0.00000090,-0.00007789
 ,-0.00001260,0.00001254,0.00002263,0.00000010,0.00000954,-0.00007278,-
 0.00007325,0.00000611,-0.00000248,0.00005819,-0.00001272,-0.00003188,-
 0.00002105,0.00002602,0.00000931,0.00001003,-0.00000335,-0.00001246,-0
 .00000623,0.00001430,0.00001292,0.00000925,-0.00000006,-0.00000242,-0.
 00001448,-0.00002413,-0.00001703,-0.00003205,-0.00002266,0.00001399,0.
 00002268,-0.00000244,0.00000369,-0.00001300,-0.00000670,-0.00001503,0.
 00001367,-0.00000089,-0.00000873,-0.00000855,0.00001859,0.00000484,-0.
 00000485,0.00000031,0.00000650,-0.00000848,0.00000653,0.00000243,-0.00
 000974,0.00000574,-0.00003364,0.00000343,-0.00000890,0.00000518,-0.000
 00957,0.00000134,0.00000842,-0.00069870,0.00024474,0.00057076,0.000283
 10,-0.00038296,0.00023012,0.00045431,-0.00037114,-0.00001325,0.0000807
 0,-0.00003432,0.00012023,-0.00030977,0.00008912,0.00012803,0.00011950,
 -0.00014837,0.00678669,-0.00418522,-0.00059398,-0.04245892,-0.02166018
 ,0.01542225,-0.18630925,-0.03836020,0.00562617,0.00224483,0.00013431,-
 0.00033933,-0.00461010,0.00587478,0.00194261,-0.02600707,-0.01920234,0
 .00261327,-0.00475154,0.02207167,-0.02257994,0.00106891,-0.00076840,0.
 00011781,-0.00302780,0.00382310,0.00182899,-0.09984339,0.00381698,-0.0
 1338110,0.01058832,-0.02183194,0.02425717,-0.00018195,0.00811426,-0.01
 076728,0.34213081,-0.00011721,-0.00005605,-0.00004292,0.00024618,0.000
 17884,-0.00004410,-0.00014070,-0.00012180,0.00001335,0.00004372,0.0000
 3239,0.00003449,0.00001459,-0.00001617,-0.00002106,0.00007579,0.000010
 36,-0.00000654,-0.00001229,0.00000284,-0.00000911,0.00003956,0.0000463
 3,-0.00000359,0.00000284,-0.00002239,0.00000355,0.00001046,0.00001468,
 -0.00002889,-0.00001007,0.00000538,0.00000328,0.00000542,0.00000948,-0
 .00001079,0.00000770,0.00001143,0.00001782,0.00000421,-0.00002180,0.00
 001246,0.00000502,0.00002424,0.00001901,-0.00000256,0.00000464,-0.0000
 0704,0.00001131,0.00000800,0.00001550,-0.00001150,0.00000455,-0.000003
 72,0.00001016,-0.00001967,-0.00000287,-0.00000821,0.00000253,0.0000030
 9,-0.00000862,0.00000208,-0.00000928,0.00000445,0.00000269,-0.00000473
 ,0.00000686,0.00000275,0.00000174,0.00000149,0.00000355,0.00000433,-0.
 00000051,0.00001827,-0.00018760,0.00070111,0.00065768,-0.00052990,0.00
 022142,0.00014764,-0.00008532,0.00002044,-0.00005395,0.00006879,0.0000
 3278,-0.00008978,-0.00020052,-0.00041567,0.00085344,-0.00049399,-0.003
 72786,0.00308085,0.00063410,0.00947852,0.01085275,-0.00152751,-0.06616
 700,-0.10506675,0.01926514,-0.00063247,0.00283528,0.00107262,0.0034791
 2,-0.00107930,-0.00140970,-0.02921297,-0.01406761,0.00722764,0.0099923
 8,-0.03039047,0.03375630,-0.00198438,0.00276004,0.00066687,0.00681259,
 -0.00371527,-0.00237185,0.02854469,-0.13020152,0.07266971,0.00317540,-
 0.01791519,0.02026342,0.00165617,0.00760771,0.00649673,0.06455657,0.28
 842172,-0.00003165,-0.00002940,0.00003143,0.00008004,-0.00015602,0.000
 14349,-0.00007873,-0.00002363,-0.00006773,0.00002156,0.00001469,0.0000
 0994,-0.00002267,-0.00001027,0.00000601,0.00001057,-0.00000026,0.00000
 127,0.00000698,0.00001398,-0.00000311,0.00001762,0.00002169,0.00000915
 ,0.00000188,-0.00001952,0.00000026,0.00001327,0.00000108,-0.00000013,-
 0.00000382,-0.00000672,0.00000459,-0.00000144,-0.00000448,0.00000359,-
 0.00000606,-0.00000230,-0.00000599,0.00000151,0.00001771,-0.00000195,-
 0.00000044,0.00000703,0.00001179,0.00000031,-0.00001010,-0.00000238,0.
 00000401,0.00001017,0.00000755,0.00000523,-0.00000603,0.00000228,-0.00
 000024,-0.00000416,-0.00001788,-0.00000223,0.00000505,-0.00000171,0.00
 000280,-0.00000317,0.00000179,-0.00000423,0.00000140,0.00000221,0.0000
 1192,-0.00000148,0.00000199,-0.00000040,0.00000589,-0.00000028,0.00000
 521,0.00018312,-0.00017235,-0.00084928,-0.00056840,0.00037756,-0.00028
 121,-0.00034278,0.00022223,0.00003684,0.00000272,0.00008462,0.00002615
 ,0.00017874,0.00005977,0.00024788,-0.00056244,0.00031206,-0.00021373,0
 .00034159,0.00060677,0.01888220,0.01117053,-0.00324266,0.03094178,0.02
 819486,-0.08691468,-0.00149741,0.00203869,0.00153388,0.00367138,-0.002
 96326,0.00053537,-0.01599677,-0.00636940,0.01220915,-0.00333042,0.0078
 5015,-0.00013195,-0.00107188,0.00103814,0.00295367,0.00063590,-0.00106
 308,0.00164642,-0.04194694,0.06582225,-0.14638488,-0.00068416,0.012294
 42,-0.01167049,-0.01107659,0.03081612,-0.03507205,-0.00649081,-0.16421
 780,0.27068132,0.00005461,0.00004117,0.00001765,-0.00014173,-0.0000488
 6,0.00000820,0.00008052,0.00004073,-0.00000413,-0.00002482,-0.00001256
 ,-0.00001505,-0.00000345,0.00000512,0.00000551,-0.00003369,-0.00000435
 ,0.00000460,0.00000647,-0.00000122,0.00000283,-0.00002224,-0.00002331,
 0.00000360,-0.00000130,0.00001452,-0.00000343,-0.00000637,-0.00000774,
 0.00001284,0.00000366,-0.00000025,-0.00000083,-0.00000356,-0.00000384,
 0.00000489,-0.00000077,-0.00000162,-0.00000487,-0.00000136,0.00000614,
 -0.00000748,-0.00000329,-0.00001172,-0.00000905,0.00000286,0.00000202,
 0.00000014,-0.00000178,-0.00000334,-0.00000394,-0.00000070,0.00000106,
 0.00000107,-0.00000312,0.00000237,0.00000429,0.00000246,-0.00000101,-0
 .00000040,0.00000339,-0.00000234,0.00000291,-0.00000077,-0.00000196,0.
 00000177,-0.00000713,-0.00000041,-0.00000161,0.00000040,-0.00000209,-0
 .00000049,0.00016339,-0.00000514,-0.00002279,0.00099190,0.00112634,-0.
 00101328,-0.00003068,-0.00002986,0.00000791,-0.00001180,-0.00000630,0.
 00000364,-0.00010392,0.00013942,0.00011949,-0.00042656,0.00041406,0.00
 008369,-0.00432347,0.00400485,0.00234544,-0.00295931,0.01127269,-0.019
 55570,-0.07238801,0.05255104,-0.06212898,0.00092814,-0.00043398,0.0004
 7806,0.00033504,-0.00077350,-0.00022798,-0.00126542,0.00669155,-0.0063
 3240,-0.00113028,-0.00059074,0.00073623,0.00025838,0.00013031,-0.00005
 619,0.00022405,-0.00000153,-0.00012981,-0.00498690,-0.00202746,0.00062
 470,0.00023214,-0.00124688,0.00116331,0.00008750,0.00005381,0.00032926
 ,0.00338729,-0.02670887,0.02896608,0.08112023,-0.00004560,-0.00003543,
 -0.00002100,0.00013678,0.00004871,-0.00000945,-0.00006764,-0.00003355,
 0.00000710,0.00002048,0.00001049,0.00001215,0.00000328,-0.00000405,-0.
 00000398,0.00002852,0.00000423,-0.00000446,-0.00000482,0.00000113,-0.0
 0000259,0.00001870,0.00001968,-0.00000317,0.00000107,-0.00001224,0.000
 00292,0.00000530,0.00000644,-0.00001069,-0.00000264,-0.00000021,0.0000
 0079,0.00000339,0.00000374,-0.00000433,0.00000004,0.00000083,0.0000031
 6,0.00000085,-0.00000458,0.00000707,0.00000270,0.00001005,0.00000778,-
 0.00000220,-0.00000136,-0.00000040,0.00000171,0.00000282,0.00000325,-0
 .00000029,-0.00000087,-0.00000071,0.00000297,-0.00000290,-0.00000314,-
 0.00000208,0.00000053,0.00000053,-0.00000298,0.00000194,-0.00000269,0.
 00000077,0.00000186,-0.00000168,0.00000587,0.00000034,0.00000149,-0.00
 000035,0.00000164,0.00000038,-0.00013773,-0.00005360,-0.00001498,-0.00
 054585,-0.00053414,0.00112489,0.00000916,0.00003335,-0.00001634,0.0000
 2146,-0.00000522,0.00001490,-0.00000679,-0.00002309,-0.00008552,0.0002
 7989,-0.00030723,-0.00004362,0.00393778,-0.00129012,-0.00278290,0.0058
 5575,-0.01195681,0.01695550,0.04512267,-0.14919142,0.11406809,-0.00088
 650,0.00030260,-0.00016131,0.00023747,0.00055236,-0.00024183,-0.003873
 08,0.01274455,-0.01231777,0.00007212,0.00062875,-0.00000230,-0.0000471
 1,-0.00006043,-0.00002458,0.00009586,-0.00006953,-0.00001248,-0.003403
 39,0.00030476,-0.00106245,0.00018537,-0.00055692,0.00081646,0.00013653
 ,-0.00000870,0.00044926,-0.00261113,-0.01476443,0.01633469,-0.04454629
 ,0.16423603,0.00002056,0.00001365,0.00000116,-0.00004335,0.00000297,0.
 00000888,0.00004183,0.00002267,-0.00000357,-0.00001145,-0.00000563,-0.
 00000651,-0.00000192,0.00000325,0.00000355,-0.00001432,-0.00000208,0.0
 0000178,0.00000545,0.00000213,0.00000131,-0.00000942,-0.00000967,0.000
 00232,-0.00000025,0.00000591,-0.00000177,-0.00000299,-0.00000374,0.000
 00586,0.00000194,-0.00000076,-0.00000002,-0.00000207,-0.00000184,0.000
 00331,-0.00000054,-0.00000081,-0.00000367,-0.00000065,0.00000332,-0.00
 000380,-0.00000281,-0.00000465,-0.00000254,0.00000232,0.00000110,-0.00
 000017,0.00000016,-0.00000073,-0.00000132,-0.00000060,0.00000017,0.000
 00078,-0.00000183,-0.00000069,0.00000023,0.00000106,-0.00000038,-0.000
 00044,0.00000181,-0.00000167,0.00000182,-0.00000072,-0.00000101,0.0000
 0138,-0.00000278,-0.00000011,-0.00000077,0.00000037,-0.00000069,-0.000
 00042,-0.00000945,-0.00005303,-0.00002913,0.00034434,-0.00046128,0.000
 77258,0.00001218,0.00001415,-0.00000714,0.00001009,0.00000500,0.000013
 16,-0.00009975,0.00009746,0.00001854,0.00017961,-0.00018881,-0.0000160
 1,0.00155765,-0.00106929,-0.00010193,0.00234568,-0.00839335,0.00908071
 ,-0.05553661,0.11781559,-0.19665830,-0.00046539,0.00036873,0.00067604,
 -0.00069898,0.00065998,0.00025855,-0.00772844,0.01517255,-0.01701665,0
 .00029762,-0.00014402,-0.00036225,-0.00007746,0.00004263,0.00005232,-0
 .00010410,-0.00000817,0.00002251,0.00248716,-0.00043832,0.00149681,-0.
 00009820,0.00076440,-0.00026385,0.00000422,-0.00019780,0.00039260,0.00
 300977,0.00896887,-0.00776995,0.05459029,-0.13297602,0.20943400\\0.000
 00115,0.00000299,0.00000059,0.00000099,-0.00000353,-0.00000054,0.00000
 081,0.00000033,0.00000815,0.00000070,-0.00000025,0.00000205,0.00000105
 ,0.00000116,0.00000358,-0.00000293,-0.00000038,-0.00000140,-0.00000188
 ,0.00000172,0.00000243,0.00000213,0.00000517,0.00000390,-0.00000252,0.
 00000240,0.00000462,0.00000175,0.00000223,0.00000356,0.00000163,0.0000
 0144,0.00000409,0.00000226,0.00000082,0.00000230,0.00000046,0.00000077
 ,0.00000244,0.00000164,0.00000026,0.00000103,-0.00000013,0.00000434,0.
 00000401,-0.00000174,0.00000163,0.00000268,-0.00000410,0.00000273,0.00
 000211,-0.00000228,0.00000316,0.00000379,-0.00000323,0.00000190,0.0000
 0283,0.00000056,0.00000172,0.00000432,-0.00000088,0.00000214,0.0000042
 7,0.00000107,0.00000368,0.00000545,0.00000038,0.00000342,0.00000667,-0
 .00000164,0.00000389,0.00000572,0.00000075,0.00000132,0.00000099,0.000
 00082,-0.00000057,-0.00000180,0.00000008,0.00000004,-0.00000186,0.0000
 0001,-0.00000062,-0.00000145,0.00000170,-0.00000287,-0.00000307,-0.000
 00002,-0.00000182,-0.00000255,0.00000321,-0.00000378,-0.00000160,-0.00
 000036,-0.00000207,-0.00000481,-0.00000170,-0.00000330,-0.00000528,0.0
 0000146,-0.00000275,-0.00000517,0.00000082,-0.00000300,-0.00000435,-0.
 00000107,-0.00000193,-0.00000461,0.00000128,-0.00000314,-0.00000393,0.
 00000074,-0.00000348,-0.00000539,-0.00000039,-0.00000233,-0.00000437,-
 0.00000044,-0.00000175,-0.00000608,-0.00000047,-0.00000345,-0.00000597
 ,-0.00000134,-0.00000249,-0.00000470,-0.00000099,-0.00000280,-0.000006
 77,0.00000069,-0.00000292,-0.00000586\\\@


 THE PROBLEM WITH THE LADDER OF SUCCESS IS YOU CAN'T
 CLIMB IT WHILE YOU'RE TWIDDLING YOUR THUMBS.
 Job cpu time:       0 days  1 hours 11 minutes 11.3 seconds.
 File lengths (MBytes):  RWF=    595 Int=      0 D2E=      0 Chk=     10 Scr=      1
 Normal termination of Gaussian 09 at Mon Apr 24 08:48:51 2023.
