 Entering Gaussian System, Link 0=g09
 Input=au-1to3-ts-2-af13-c-term-level3-freq-se.com
 Output=au-1to3-ts-2-af13-c-term-level3-freq-se.log
 Initial command:
 /home/scr/programs/g09/l1.exe "/home/scr/guest2/Gau-18808.inp" -scrdir="/home/scr/guest2/"
 Entering Link 1 = /home/scr/programs/g09/l1.exe PID=     18809.
  
 Copyright (c) 1988,1990,1992,1993,1995,1998,2003,2009,2013,
            Gaussian, Inc.  All Rights Reserved.
  
 This is part of the Gaussian(R) 09 program.  It is based on
 the Gaussian(R) 03 system (copyright 2003, Gaussian, Inc.),
 the Gaussian(R) 98 system (copyright 1998, Gaussian, Inc.),
 the Gaussian(R) 94 system (copyright 1995, Gaussian, Inc.),
 the Gaussian 92(TM) system (copyright 1992, Gaussian, Inc.),
 the Gaussian 90(TM) system (copyright 1990, Gaussian, Inc.),
 the Gaussian 88(TM) system (copyright 1988, Gaussian, Inc.),
 the Gaussian 86(TM) system (copyright 1986, Carnegie Mellon
 University), and the Gaussian 82(TM) system (copyright 1983,
 Carnegie Mellon University). Gaussian is a federally registered
 trademark of Gaussian, Inc.
  
 This software contains proprietary and confidential information,
 including trade secrets, belonging to Gaussian, Inc.
  
 This software is provided under written license and may be
 used, copied, transmitted, or stored only in accord with that
 written license.
  
 The following legend is applicable only to US Government
 contracts under FAR:
  
                    RESTRICTED RIGHTS LEGEND
  
 Use, reproduction and disclosure by the US Government is
 subject to restrictions as set forth in subparagraphs (a)
 and (c) of the Commercial Computer Software - Restricted
 Rights clause in FAR 52.227-19.
  
 Gaussian, Inc.
 340 Quinnipiac St., Bldg. 40, Wallingford CT 06492
  
  
 ---------------------------------------------------------------
 Warning -- This program may not be used in any manner that
 competes with the business of Gaussian, Inc. or will provide
 assistance to any competitor of Gaussian, Inc.  The licensee
 of this program is prohibited from giving any competitor of
 Gaussian, Inc. access to this program.  By using this program,
 the user acknowledges that Gaussian, Inc. is engaged in the
 business of creating and licensing software in the field of
 computational chemistry and represents and warrants to the
 licensee that it is not a competitor of Gaussian, Inc. and that
 it will not use this program in any manner prohibited above.
 ---------------------------------------------------------------
  

 Cite this work as:
 Gaussian 09, Revision D.01,
 M. J. Frisch, G. W. Trucks, H. B. Schlegel, G. E. Scuseria, 
 M. A. Robb, J. R. Cheeseman, G. Scalmani, V. Barone, B. Mennucci, 
 G. A. Petersson, H. Nakatsuji, M. Caricato, X. Li, H. P. Hratchian, 
 A. F. Izmaylov, J. Bloino, G. Zheng, J. L. Sonnenberg, M. Hada, 
 M. Ehara, K. Toyota, R. Fukuda, J. Hasegawa, M. Ishida, T. Nakajima, 
 Y. Honda, O. Kitao, H. Nakai, T. Vreven, J. A. Montgomery, Jr., 
 J. E. Peralta, F. Ogliaro, M. Bearpark, J. J. Heyd, E. Brothers, 
 K. N. Kudin, V. N. Staroverov, T. Keith, R. Kobayashi, J. Normand, 
 K. Raghavachari, A. Rendell, J. C. Burant, S. S. Iyengar, J. Tomasi, 
 M. Cossi, N. Rega, J. M. Millam, M. Klene, J. E. Knox, J. B. Cross, 
 V. Bakken, C. Adamo, J. Jaramillo, R. Gomperts, R. E. Stratmann, 
 O. Yazyev, A. J. Austin, R. Cammi, C. Pomelli, J. W. Ochterski, 
 R. L. Martin, K. Morokuma, V. G. Zakrzewski, G. A. Voth, 
 P. Salvador, J. J. Dannenberg, S. Dapprich, A. D. Daniels, 
 O. Farkas, J. B. Foresman, J. V. Ortiz, J. Cioslowski, 
 and D. J. Fox, Gaussian, Inc., Wallingford CT, 2013.
 
 ******************************************
 Gaussian 09:  EM64L-G09RevD.01 24-Apr-2013
                16-Apr-2023 
 ******************************************
 %mem=50000MB
 %nprocshared=15
 Will use up to   15 processors via shared memory.
 %chk=au-1to3-ts-2-af13-c-term-level3-freq-se.chk
 ----------------------------------------------------------------
 # opt=(ts,readfc,noeigentest) freq=noraman b3lyp/gen pseudo=read
 ----------------------------------------------------------------
 1/5=1,10=3,11=1,14=-1,18=20,26=3,38=1/1,3;
 2/9=110,12=2,17=6,18=5,40=1/2;
 3/5=7,11=2,16=1,17=8,25=1,30=1,71=1,74=-5/1,2,3;
 4//1;
 5/5=2,38=5/2;
 6/7=2,8=2,9=2,10=2,28=1/1;
 7//1,2,3,16;
 1/5=1,11=1,14=-1,18=20,26=3/3(2);
 2/9=110/2;
 99//99;
 2/9=110/2;
 3/5=7,6=1,11=2,16=1,17=8,25=1,30=1,71=1,74=-5,82=7/1,2,3;
 4/5=5,16=3,69=1/1;
 5/5=2,38=5/2;
 7//1,2,3,16;
 1/5=1,11=1,14=-1,18=20,26=3/3(-5);
 2/9=110/2;
 6/7=2,8=2,9=2,10=2,19=2,28=1/1;
 99/9=1/99;
 -------------------
 Title Card Required
 -------------------
 Symbolic Z-matrix:
 Charge =  0 Multiplicity = 1
 Au                   -0.89428  -2.6397   -0.4609 
 P                    -1.10324  -4.42047   1.08799 
 C                    -1.01443  -6.08639   0.27525 
 H                    -1.14612  -6.86144   1.04063 
 H                     0.0071   -6.18113  -0.11322 
 C                    -2.71342  -4.41516   2.00263 
 H                    -2.78691  -5.34607   2.57989 
 H                    -3.49566  -4.43927   1.23596 
 C                     0.23345  -4.4302    2.37594 
 H                     0.18628  -3.45088   2.8665 
 H                     1.18097  -4.44266   1.82293 
 C                    -2.03199  -6.27092  -0.85915 
 H                    -3.06312  -6.2125   -0.49574 
 H                    -1.90695  -5.50518  -1.63125 
 H                    -1.89925  -7.2532   -1.32586 
 C                     0.19295  -5.55695   3.41683 
 H                     1.03479  -5.4527    4.11068 
 H                    -0.72718  -5.53092   4.01045 
 H                     0.27047  -6.54651   2.95456 
 C                    -2.91282  -3.18928   2.90538 
 H                    -2.84146  -2.25974   2.33176 
 H                    -3.90868  -3.2233    3.35972 
 H                    -2.17869  -3.15584   3.71839 
 N                     5.21227   3.44064   3.16927 
 C                     4.87873   2.17003   2.51892 
 C                     5.12447   2.25132   1.00005 
 O                     4.73937   3.23803   0.37541 
 C                     3.38664   1.88198   2.81143 
 O                     2.92517   0.63069   2.30759 
 N                     5.80091   1.25156   0.34707 
 C                     6.28925  -0.01591   0.87672 
 C                     5.17352  -0.96054   1.35231 
 O                     5.05007  -1.2194    2.55324 
 N                     4.30645  -1.45712   0.43405 
 C                     4.23105  -1.21693  -0.99631 
 C                     3.5806    0.10416  -1.44664 
 O                     3.84968   0.53878  -2.56614 
 C                     3.439    -2.36797  -1.67657 
 S                     1.87103  -2.90982  -0.84686 
 N                     2.63619   0.63211  -0.62807 
 C                     1.52485   1.39174  -1.18581 
 C                     0.24711   0.54769  -1.12018 
 C                     1.31211   2.70851  -0.4076 
 O                     0.6595    2.72254   0.635 
 N                     1.84967   3.83763  -0.93824 
 C                     2.85917   3.93742  -1.97555 
 C                     3.66778   5.19879  -1.73827 
 O                     3.41765   6.03836  -0.9022 
 O                     4.68845   5.29438  -2.61155 
 H                     3.25237   1.94671   3.8982 
 H                     2.76306   2.64616   2.34091 
 H                     3.44142  -0.0759    2.73898 
 H                     5.47621   1.37813   2.98131 
 H                     4.84158   4.19132   2.58504 
 H                     6.22298   3.56899   3.18021 
 H                     6.94559   0.13605   1.73708 
 H                     6.88409  -0.48592   0.08731 
 H                     5.87086   1.40891  -0.65234 
 H                     4.05139  -3.27779  -1.6546 
 H                     3.2484   -2.10047  -2.71757 
 H                     5.23575  -1.22743  -1.43237 
 H                     3.54476  -2.00896   0.82498 
 H                    -0.59901   1.07463  -1.56789 
 H                    -0.01382   0.31797  -0.08785 
 H                     1.78935   1.59627  -2.22457 
 H                     2.58087   0.35517   0.35353 
 H                     2.41651   4.01104  -2.97989 
 H                     3.54063   3.08355  -1.98039 
 H                     1.7929    4.65598  -0.33754 
 H                     5.14889   6.13016  -2.40711 
 Se                    0.38587  -1.16222  -2.15108 
 O                    -3.84978   2.49214   0.28475 
 O                    -7.1399    2.48377  -1.29862 
 O                    -7.56179   4.10955   0.95654 
 O                    -5.27316   5.47649   1.91255 
 C                    -4.79721   2.32409  -0.77544 
 C                    -6.20766   2.56023  -0.23512 
 C                    -6.2566    3.94316   0.41334 
 C                    -5.17213   4.13084   1.468 
 C                    -3.8048    3.79801   0.84275 
 H                    -4.57448   3.05886  -1.57395 
 H                    -6.40485   1.78997   0.52601 
 H                    -6.0849    4.69516  -0.37575 
 H                    -5.35483   3.42579   2.29644 
 H                    -3.58191   4.55166   0.06831 
 H                    -7.96326   2.86361  -0.94793 
 H                    -7.55262   4.96602   1.41576 
 H                    -4.47325   5.64969   2.44335 
 C                    -2.6646    3.76117   1.85809 
 H                    -1.71317   3.56481   1.34913 
 H                    -2.85296   2.93811   2.56251 
 O                    -2.63912   5.02551   2.53535 
 H                    -1.91069   5.0131    3.17317 
 O                    -4.68365   1.02873  -1.24542 
 C                    -3.43337   0.77155  -1.88032 
 C                    -3.27134  -0.71801  -2.1399 
 H                    -2.62462   1.1305   -1.23666 
 H                    -3.3925    1.3209   -2.83816 
 H                    -2.33144  -0.85815  -2.70405 
 H                    -4.08961  -1.08112  -2.7707 
 S                    -3.21092  -1.7438   -0.62657 
 

 GradGradGradGradGradGradGradGradGradGradGradGradGradGradGradGradGradGrad
 Berny optimization.
 Initialization pass.
 No redundant coordinates on chk file, so ReadFC converted to ReadCartesianFC.
 Cartesian force constants read from checkpoint file:
 "au-1to3-ts-2-af13-c-term-level3-freq-se.chk"
 FormGI is forming the generalized inverse of G from B-inverse, IUseBI=4.
                           ----------------------------
                           !    Initial Parameters    !
                           ! (Angstroms and Degrees)  !
 --------------------------                            --------------------------
 ! Name  Definition              Value          Derivative Info.                !
 --------------------------------------------------------------------------------
 ! R1    R(1,2)                  2.3694         D2E/DX2 =    0.0889             !
 ! R2    R(1,39)                 2.8051         D2E/DX2 =    0.0317             !
 ! R3    R(1,71)                 2.5843         D2E/DX2 =    0.0682             !
 ! R4    R(1,101)                2.4894         D2E/DX2 =    0.0714             !
 ! R5    R(2,3)                  1.8557         D2E/DX2 =    0.1863             !
 ! R6    R(2,6)                  1.8518         D2E/DX2 =    0.188              !
 ! R7    R(2,9)                  1.8563         D2E/DX2 =    0.1871             !
 ! R8    R(3,4)                  1.0972         D2E/DX2 =    0.334              !
 ! R9    R(3,5)                  1.097          D2E/DX2 =    0.3353             !
 ! R10   R(3,12)                 1.535          D2E/DX2 =    0.2826             !
 ! R11   R(6,7)                  1.0978         D2E/DX2 =    0.3324             !
 ! R12   R(6,8)                  1.0956         D2E/DX2 =    0.3393             !
 ! R13   R(6,20)                 1.5354         D2E/DX2 =    0.2812             !
 ! R14   R(9,10)                 1.0963         D2E/DX2 =    0.3374             !
 ! R15   R(9,11)                 1.0972         D2E/DX2 =    0.3351             !
 ! R16   R(9,16)                 1.5345         D2E/DX2 =    0.2797             !
 ! R17   R(12,13)                1.0949         D2E/DX2 =    0.3424             !
 ! R18   R(12,14)                1.0946         D2E/DX2 =    0.3434             !
 ! R19   R(12,15)                1.0956         D2E/DX2 =    0.34               !
 ! R20   R(16,17)                1.0959         D2E/DX2 =    0.3393             !
 ! R21   R(16,18)                1.0953         D2E/DX2 =    0.3415             !
 ! R22   R(16,19)                1.095          D2E/DX2 =    0.3421             !
 ! R23   R(20,21)                1.0946         D2E/DX2 =    0.3439             !
 ! R24   R(20,22)                1.0951         D2E/DX2 =    0.3413             !
 ! R25   R(20,23)                1.0959         D2E/DX2 =    0.3393             !
 ! R26   R(24,25)                1.4658         D2E/DX2 =    0.332              !
 ! R27   R(24,54)                1.0209         D2E/DX2 =    0.4362             !
 ! R28   R(24,55)                1.0189         D2E/DX2 =    0.4394             !
 ! R29   R(25,26)                1.5408         D2E/DX2 =    0.2602             !
 ! R30   R(25,28)                1.5475         D2E/DX2 =    0.2623             !
 ! R31   R(25,53)                1.0945         D2E/DX2 =    0.3399             !
 ! R32   R(26,27)                1.2297         D2E/DX2 =    0.7846             !
 ! R33   R(26,30)                1.3724         D2E/DX2 =    0.4505             !
 ! R34   R(28,29)                1.4257         D2E/DX2 =    0.3457             !
 ! R35   R(28,50)                1.0969         D2E/DX2 =    0.3339             !
 ! R36   R(28,51)                1.0928         D2E/DX2 =    0.3478             !
 ! R37   R(29,52)                0.9756         D2E/DX2 =    0.4761             !
 ! R38   R(30,31)                1.4579         D2E/DX2 =    0.3579             !
 ! R39   R(30,58)                1.0141         D2E/DX2 =    0.4555             !
 ! R40   R(31,32)                1.5373         D2E/DX2 =    0.2591             !
 ! R41   R(31,56)                1.0927         D2E/DX2 =    0.3447             !
 ! R42   R(31,57)                1.0945         D2E/DX2 =    0.341              !
 ! R43   R(32,33)                1.2347         D2E/DX2 =    0.7579             !
 ! R44   R(32,34)                1.3571         D2E/DX2 =    0.4838             !
 ! R45   R(34,35)                1.4523         D2E/DX2 =    0.3513             !
 ! R46   R(34,62)                1.0186         D2E/DX2 =    0.4377             !
 ! R47   R(35,36)                1.5399         D2E/DX2 =    0.2442             !
 ! R48   R(35,38)                1.554          D2E/DX2 =    0.2413             !
 ! R49   R(35,61)                1.0953         D2E/DX2 =    0.3357             !
 ! R50   R(36,37)                1.2307         D2E/DX2 =    0.7739             !
 ! R51   R(36,40)                1.3567         D2E/DX2 =    0.452              !
 ! R52   R(38,39)                1.8549         D2E/DX2 =    0.1581             !
 ! R53   R(38,59)                1.0969         D2E/DX2 =    0.3346             !
 ! R54   R(38,60)                1.0916         D2E/DX2 =    0.349              !
 ! R55   R(40,41)                1.4571         D2E/DX2 =    0.3336             !
 ! R56   R(40,66)                1.0214         D2E/DX2 =    0.4257             !
 ! R57   R(41,42)                1.5328         D2E/DX2 =    0.2595             !
 ! R58   R(41,43)                1.5443         D2E/DX2 =    0.2487             !
 ! R59   R(41,65)                1.0912         D2E/DX2 =    0.3476             !
 ! R60   R(42,63)                1.0927         D2E/DX2 =    0.3468             !
 ! R61   R(42,64)                1.0893         D2E/DX2 =    0.3549             !
 ! R62   R(42,71)                2.0014         D2E/DX2 =    0.1363             !
 ! R63   R(43,44)                1.2301         D2E/DX2 =    0.7795             !
 ! R64   R(43,45)                1.3585         D2E/DX2 =    0.4707             !
 ! R65   R(45,46)                1.4509         D2E/DX2 =    0.3556             !
 ! R66   R(45,69)                1.0167         D2E/DX2 =    0.449              !
 ! R67   R(46,47)                1.517          D2E/DX2 =    0.2913             !
 ! R68   R(46,67)                1.1            D2E/DX2 =    0.3267             !
 ! R69   R(46,68)                1.0925         D2E/DX2 =    0.3478             !
 ! R70   R(47,48)                1.211          D2E/DX2 =    0.869              !
 ! R71   R(47,49)                1.3467         D2E/DX2 =    0.4221             !
 ! R72   R(49,70)                0.9759         D2E/DX2 =    0.4892             !
 ! R73   R(72,76)                1.4317         D2E/DX2 =    0.2544             !
 ! R74   R(72,80)                1.4208         D2E/DX2 =    0.2902             !
 ! R75   R(73,77)                1.4163         D2E/DX2 =    0.3582             !
 ! R76   R(73,86)                0.9722         D2E/DX2 =    0.4962             !
 ! R77   R(74,78)                1.4235         D2E/DX2 =    0.345              !
 ! R78   R(74,87)                0.9719         D2E/DX2 =    0.4988             !
 ! R79   R(75,79)                1.4208         D2E/DX2 =    0.3531             !
 ! R80   R(75,88)                0.9755         D2E/DX2 =    0.4804             !
 ! R81   R(76,77)                1.5288         D2E/DX2 =    0.2413             !
 ! R82   R(76,81)                1.1078         D2E/DX2 =    0.3063             !
 ! R83   R(76,94)                1.3827         D2E/DX2 =    0.3903             !
 ! R84   R(77,78)                1.5282         D2E/DX2 =    0.246              !
 ! R85   R(77,82)                1.1007         D2E/DX2 =    0.3245             !
 ! R86   R(78,79)                1.5243         D2E/DX2 =    0.2496             !
 ! R87   R(78,83)                1.1035         D2E/DX2 =    0.3165             !
 ! R88   R(79,80)                1.5399         D2E/DX2 =    0.2401             !
 ! R89   R(79,84)                1.1031         D2E/DX2 =    0.3174             !
 ! R90   R(80,85)                1.1034         D2E/DX2 =    0.3175             !
 ! R91   R(80,89)                1.5272         D2E/DX2 =    0.2978             !
 ! R92   R(89,90)                1.0967         D2E/DX2 =    0.3362             !
 ! R93   R(89,91)                1.0996         D2E/DX2 =    0.3271             !
 ! R94   R(89,92)                1.4345         D2E/DX2 =    0.3331             !
 ! R95   R(92,93)                0.9683         D2E/DX2 =    0.5098             !
 ! R96   R(94,95)                1.4256         D2E/DX2 =    0.3352             !
 ! R97   R(95,96)                1.5207         D2E/DX2 =    0.2867             !
 ! R98   R(95,97)                1.0942         D2E/DX2 =    0.3402             !
 ! R99   R(95,98)                1.1049         D2E/DX2 =    0.3137             !
 ! R100  R(96,99)                1.1051         D2E/DX2 =    0.3106             !
 ! R101  R(96,100)               1.0951         D2E/DX2 =    0.3383             !
 ! R102  R(96,101)               1.8292         D2E/DX2 =    0.1984             !
 ! A1    A(2,1,39)              95.9992         D2E/DX2 =    0.0253             !
 ! A2    A(2,1,71)             154.2809         D2E/DX2 =    0.0158             !
 ! A3    A(2,1,101)            103.4102         D2E/DX2 =    0.0469             !
 ! A4    A(39,1,71)             58.4486         D2E/DX2 =   -0.0093             !
 ! A5    A(39,1,101)           160.544          D2E/DX2 =    0.0462             !
 ! A6    A(71,1,101)           102.2224         D2E/DX2 =    0.0761             !
 ! A7    A(1,2,3)              112.593          D2E/DX2 =    0.0175             !
 ! A8    A(1,2,6)              113.4162         D2E/DX2 =    0.0198             !
 ! A9    A(1,2,9)              113.204          D2E/DX2 =    0.0172             !
 ! A10   A(3,2,6)              105.0999         D2E/DX2 =    0.0206             !
 ! A11   A(3,2,9)              105.3499         D2E/DX2 =    0.0227             !
 ! A12   A(6,2,9)              106.4666         D2E/DX2 =    0.0238             !
 ! A13   A(2,3,4)              108.8376         D2E/DX2 =    0.0448             !
 ! A14   A(2,3,5)              106.0926         D2E/DX2 =    0.0429             !
 ! A15   A(2,3,12)             113.569          D2E/DX2 =    0.1233             !
 ! A16   A(4,3,5)              107.3243         D2E/DX2 =    0.0175             !
 ! A17   A(4,3,12)             110.5502         D2E/DX2 =    0.0465             !
 ! A18   A(5,3,12)             110.1941         D2E/DX2 =    0.044              !
 ! A19   A(2,6,7)              108.3902         D2E/DX2 =    0.0449             !
 ! A20   A(2,6,8)              105.9704         D2E/DX2 =    0.0421             !
 ! A21   A(2,6,20)             113.9293         D2E/DX2 =    0.116              !
 ! A22   A(7,6,8)              107.5481         D2E/DX2 =    0.0172             !
 ! A23   A(7,6,20)             111.0483         D2E/DX2 =    0.0462             !
 ! A24   A(8,6,20)             109.6507         D2E/DX2 =    0.0436             !
 ! A25   A(2,9,10)             105.95           D2E/DX2 =    0.0482             !
 ! A26   A(2,9,11)             105.7967         D2E/DX2 =    0.0487             !
 ! A27   A(2,9,16)             117.0968         D2E/DX2 =    0.1271             !
 ! A28   A(10,9,11)            105.8339         D2E/DX2 =    0.0171             !
 ! A29   A(10,9,16)            110.5639         D2E/DX2 =    0.0471             !
 ! A30   A(11,9,16)            110.8766         D2E/DX2 =    0.0467             !
 ! A31   A(3,12,13)            111.8757         D2E/DX2 =    0.1091             !
 ! A32   A(3,12,14)            111.1895         D2E/DX2 =    0.1104             !
 ! A33   A(3,12,15)            110.0158         D2E/DX2 =    0.1053             !
 ! A34   A(13,12,14)           107.7215         D2E/DX2 =    0.0548             !
 ! A35   A(13,12,15)           107.6585         D2E/DX2 =    0.0536             !
 ! A36   A(14,12,15)           108.2335         D2E/DX2 =    0.053              !
 ! A37   A(9,16,17)            109.8371         D2E/DX2 =    0.1036             !
 ! A38   A(9,16,18)            111.8612         D2E/DX2 =    0.1067             !
 ! A39   A(9,16,19)            112.0461         D2E/DX2 =    0.1068             !
 ! A40   A(17,16,18)           107.4527         D2E/DX2 =    0.0526             !
 ! A41   A(17,16,19)           107.3908         D2E/DX2 =    0.0529             !
 ! A42   A(18,16,19)           108.0445         D2E/DX2 =    0.0552             !
 ! A43   A(6,20,21)            111.1877         D2E/DX2 =    0.1118             !
 ! A44   A(6,20,22)            109.708          D2E/DX2 =    0.106              !
 ! A45   A(6,20,23)            111.934          D2E/DX2 =    0.1075             !
 ! A46   A(21,20,22)           107.6425         D2E/DX2 =    0.0526             !
 ! A47   A(21,20,23)           108.6126         D2E/DX2 =    0.0554             !
 ! A48   A(22,20,23)           107.5969         D2E/DX2 =    0.0531             !
 ! A49   A(25,24,54)           107.5093         D2E/DX2 =    0.1596             !
 ! A50   A(25,24,55)           109.8569         D2E/DX2 =    0.1559             !
 ! A51   A(54,24,55)           105.8852         D2E/DX2 =    0.0567             !
 ! A52   A(24,25,26)           110.8143         D2E/DX2 =    0.0833             !
 ! A53   A(24,25,28)           107.2699         D2E/DX2 =    0.1063             !
 ! A54   A(24,25,53)           108.3923         D2E/DX2 =    0.0297             !
 ! A55   A(26,25,28)           110.4826         D2E/DX2 =    0.1333             !
 ! A56   A(26,25,53)           111.5666         D2E/DX2 =    0.0308             !
 ! A57   A(28,25,53)           108.1687         D2E/DX2 =    0.0419             !
 ! A58   A(25,26,27)           119.5478         D2E/DX2 =    0.2054             !
 ! A59   A(25,26,30)           120.6108         D2E/DX2 =    0.315              !
 ! A60   A(27,26,30)           119.816          D2E/DX2 =    0.237              !
 ! A61   A(25,28,29)           114.1204         D2E/DX2 =    0.2167             !
 ! A62   A(25,28,50)           107.115          D2E/DX2 =    0.0754             !
 ! A63   A(25,28,51)           109.7939         D2E/DX2 =    0.0826             !
 ! A64   A(29,28,50)           111.2415         D2E/DX2 =    0.0744             !
 ! A65   A(29,28,51)           106.0748         D2E/DX2 =    0.0719             !
 ! A66   A(50,28,51)           108.3886         D2E/DX2 =    0.0283             !
 ! A67   A(28,29,52)           107.9453         D2E/DX2 =    0.2186             !
 ! A68   A(26,30,31)           128.724          D2E/DX2 =    0.3647             !
 ! A69   A(26,30,58)           112.9451         D2E/DX2 =    0.1562             !
 ! A70   A(31,30,58)           118.0218         D2E/DX2 =    0.1544             !
 ! A71   A(30,31,32)           113.7969         D2E/DX2 =    0.3988             !
 ! A72   A(30,31,56)           111.4892         D2E/DX2 =    0.0929             !
 ! A73   A(30,31,57)           107.059          D2E/DX2 =    0.1118             !
 ! A74   A(32,31,56)           106.1284         D2E/DX2 =    0.1012             !
 ! A75   A(32,31,57)           110.7138         D2E/DX2 =    0.0838             !
 ! A76   A(56,31,57)           107.5267         D2E/DX2 =    0.0267             !
 ! A77   A(31,32,33)           120.1519         D2E/DX2 =    0.1978             !
 ! A78   A(31,32,34)           118.6347         D2E/DX2 =    0.2769             !
 ! A79   A(33,32,34)           121.1681         D2E/DX2 =    0.2193             !
 ! A80   A(32,34,35)           129.7223         D2E/DX2 =    0.2155             !
 ! A81   A(32,34,62)           114.6035         D2E/DX2 =    0.1131             !
 ! A82   A(35,34,62)           115.389          D2E/DX2 =    0.1219             !
 ! A83   A(34,35,36)           116.8617         D2E/DX2 =    0.1511             !
 ! A84   A(34,35,38)           109.5773         D2E/DX2 =    0.1101             !
 ! A85   A(34,35,61)           110.0532         D2E/DX2 =    0.0328             !
 ! A86   A(36,35,38)           106.9861         D2E/DX2 =    0.0596             !
 ! A87   A(36,35,61)           106.2163         D2E/DX2 =    0.0264             !
 ! A88   A(38,35,61)           106.6272         D2E/DX2 =    0.0294             !
 ! A89   A(35,36,37)           118.4669         D2E/DX2 =    0.163              !
 ! A90   A(35,36,40)           116.8365         D2E/DX2 =    0.1196             !
 ! A91   A(37,36,40)           124.3056         D2E/DX2 =    0.1782             !
 ! A92   A(35,38,39)           116.8338         D2E/DX2 =    0.0835             !
 ! A93   A(35,38,59)           108.7247         D2E/DX2 =    0.0648             !
 ! A94   A(35,38,60)           108.9616         D2E/DX2 =    0.0682             !
 ! A95   A(39,38,59)           102.7487         D2E/DX2 =    0.0446             !
 ! A96   A(39,38,60)           110.5225         D2E/DX2 =    0.0465             !
 ! A97   A(59,38,60)           108.6531         D2E/DX2 =    0.0259             !
 ! A98   A(1,39,38)            150.0816         D2E/DX2 =    0.0262             !
 ! A99   A(36,40,41)           120.188          D2E/DX2 =    0.1127             !
 ! A100  A(36,40,66)           120.7977         D2E/DX2 =    0.0962             !
 ! A101  A(41,40,66)           117.8976         D2E/DX2 =    0.0964             !
 ! A102  A(40,41,42)           109.4102         D2E/DX2 =    0.0515             !
 ! A103  A(40,41,43)           110.8978         D2E/DX2 =    0.0561             !
 ! A104  A(40,41,65)           106.0932         D2E/DX2 =    0.026              !
 ! A105  A(42,41,43)           109.4593         D2E/DX2 =    0.0681             !
 ! A106  A(42,41,65)           110.2447         D2E/DX2 =    0.0284             !
 ! A107  A(43,41,65)           110.6878         D2E/DX2 =    0.0262             !
 ! A108  A(41,42,63)           111.2474         D2E/DX2 =    0.0613             !
 ! A109  A(41,42,64)           110.8792         D2E/DX2 =    0.0609             !
 ! A110  A(41,42,71)           112.9929         D2E/DX2 =    0.058              !
 ! A111  A(63,42,64)           107.7286         D2E/DX2 =    0.0273             !
 ! A112  A(63,42,71)           104.7517         D2E/DX2 =    0.0375             !
 ! A113  A(64,42,71)           108.94           D2E/DX2 =    0.0389             !
 ! A114  A(41,43,44)           120.6602         D2E/DX2 =    0.1748             !
 ! A115  A(41,43,45)           117.2174         D2E/DX2 =    0.1998             !
 ! A116  A(44,43,45)           122.1088         D2E/DX2 =    0.1956             !
 ! A117  A(43,45,46)           127.7166         D2E/DX2 =    0.1507             !
 ! A118  A(43,45,69)           114.5897         D2E/DX2 =    0.0911             !
 ! A119  A(46,45,69)           113.9471         D2E/DX2 =    0.1                !
 ! A120  A(45,46,47)           108.4356         D2E/DX2 =    0.1971             !
 ! A121  A(45,46,67)           112.1712         D2E/DX2 =    0.0642             !
 ! A122  A(45,46,68)           112.5462         D2E/DX2 =    0.0675             !
 ! A123  A(47,46,67)           107.5573         D2E/DX2 =    0.0619             !
 ! A124  A(47,46,68)           108.5469         D2E/DX2 =    0.0636             !
 ! A125  A(67,46,68)           107.4145         D2E/DX2 =    0.0257             !
 ! A126  A(46,47,48)           125.0558         D2E/DX2 =    0.1699             !
 ! A127  A(46,47,49)           111.1983         D2E/DX2 =    0.1613             !
 ! A128  A(48,47,49)           123.7141         D2E/DX2 =    0.1983             !
 ! A129  A(47,49,70)           106.4128         D2E/DX2 =    0.1798             !
 ! A130  A(1,71,42)             96.7321         D2E/DX2 =    0.134              !
 ! A131  A(76,72,80)           114.8121         D2E/DX2 =    0.0608             !
 ! A132  A(77,73,86)           105.396          D2E/DX2 =    0.1988             !
 ! A133  A(78,74,87)           105.9422         D2E/DX2 =    0.1892             !
 ! A134  A(79,75,88)           106.2666         D2E/DX2 =    0.22               !
 ! A135  A(72,76,77)           109.3098         D2E/DX2 =    0.0529             !
 ! A136  A(72,76,81)           108.8366         D2E/DX2 =    0.0292             !
 ! A137  A(72,76,94)           107.8973         D2E/DX2 =    0.079              !
 ! A138  A(77,76,81)           109.7447         D2E/DX2 =    0.041              !
 ! A139  A(77,76,94)           109.9151         D2E/DX2 =    0.0977             !
 ! A140  A(81,76,94)           111.093          D2E/DX2 =    0.0387             !
 ! A141  A(73,77,76)           109.4838         D2E/DX2 =    0.0513             !
 ! A142  A(73,77,78)           110.2672         D2E/DX2 =    0.0543             !
 ! A143  A(73,77,82)           111.3186         D2E/DX2 =    0.0224             !
 ! A144  A(76,77,78)           108.6204         D2E/DX2 =    0.0515             !
 ! A145  A(76,77,82)           107.5538         D2E/DX2 =    0.0236             !
 ! A146  A(78,77,82)           109.5191         D2E/DX2 =    0.0247             !
 ! A147  A(74,78,77)           107.2811         D2E/DX2 =    0.0582             !
 ! A148  A(74,78,79)           111.9568         D2E/DX2 =    0.0548             !
 ! A149  A(74,78,83)           109.6267         D2E/DX2 =    0.0221             !
 ! A150  A(77,78,79)           112.4715         D2E/DX2 =    0.0505             !
 ! A151  A(77,78,83)           107.9562         D2E/DX2 =    0.0246             !
 ! A152  A(79,78,83)           107.4671         D2E/DX2 =    0.0257             !
 ! A153  A(75,79,78)           106.4098         D2E/DX2 =    0.0609             !
 ! A154  A(75,79,80)           113.2593         D2E/DX2 =    0.0569             !
 ! A155  A(75,79,84)           111.0145         D2E/DX2 =    0.0225             !
 ! A156  A(78,79,80)           108.915          D2E/DX2 =    0.0492             !
 ! A157  A(78,79,84)           108.8496         D2E/DX2 =    0.0245             !
 ! A158  A(80,79,84)           108.2922         D2E/DX2 =    0.0249             !
 ! A159  A(72,80,79)           109.2694         D2E/DX2 =    0.0408             !
 ! A160  A(72,80,85)           111.0097         D2E/DX2 =    0.0201             !
 ! A161  A(72,80,89)           105.2225         D2E/DX2 =    0.0712             !
 ! A162  A(79,80,85)           108.4652         D2E/DX2 =    0.0311             !
 ! A163  A(79,80,89)           113.4655         D2E/DX2 =    0.1139             !
 ! A164  A(85,80,89)           109.4082         D2E/DX2 =    0.0331             !
 ! A165  A(80,89,90)           110.0888         D2E/DX2 =    0.0788             !
 ! A166  A(80,89,91)           108.4251         D2E/DX2 =    0.0743             !
 ! A167  A(80,89,92)           107.8109         D2E/DX2 =    0.222              !
 ! A168  A(90,89,91)           108.1731         D2E/DX2 =    0.0298             !
 ! A169  A(90,89,92)           111.1914         D2E/DX2 =    0.0715             !
 ! A170  A(91,89,92)           111.1187         D2E/DX2 =    0.0618             !
 ! A171  A(89,92,93)           108.2431         D2E/DX2 =    0.18               !
 ! A172  A(76,94,95)           113.1049         D2E/DX2 =    0.3567             !
 ! A173  A(94,95,96)           110.2532         D2E/DX2 =    0.1782             !
 ! A174  A(94,95,97)           109.0907         D2E/DX2 =    0.0688             !
 ! A175  A(94,95,98)           109.196          D2E/DX2 =    0.0633             !
 ! A176  A(96,95,97)           110.0604         D2E/DX2 =    0.0756             !
 ! A177  A(96,95,98)           109.5775         D2E/DX2 =    0.0722             !
 ! A178  A(97,95,98)           108.6333         D2E/DX2 =    0.0293             !
 ! A179  A(95,96,99)           107.5764         D2E/DX2 =    0.0769             !
 ! A180  A(95,96,100)          110.0903         D2E/DX2 =    0.08               !
 ! A181  A(95,96,101)          114.3056         D2E/DX2 =    0.149              !
 ! A182  A(99,96,100)          107.4209         D2E/DX2 =    0.0267             !
 ! A183  A(99,96,101)          108.8512         D2E/DX2 =    0.0528             !
 ! A184  A(100,96,101)         108.3776         D2E/DX2 =    0.0566             !
 ! A185  A(1,101,96)           106.7156         D2E/DX2 =    0.2923             !
 ! D1    D(39,1,2,3)           -75.2334         D2E/DX2 =    0.0063             !
 ! D2    D(39,1,2,6)           165.5778         D2E/DX2 =    0.0059             !
 ! D3    D(39,1,2,9)            44.1291         D2E/DX2 =    0.0063             !
 ! D4    D(71,1,2,3)           -69.0856         D2E/DX2 =    0.0065             !
 ! D5    D(71,1,2,6)           171.7256         D2E/DX2 =    0.0065             !
 ! D6    D(71,1,2,9)            50.2769         D2E/DX2 =    0.0069             !
 ! D7    D(101,1,2,3)          106.1215         D2E/DX2 =    0.0067             !
 ! D8    D(101,1,2,6)          -13.0673         D2E/DX2 =    0.0061             !
 ! D9    D(101,1,2,9)         -134.516          D2E/DX2 =    0.0064             !
 ! D10   D(2,1,39,38)          178.8581         D2E/DX2 =    0.0141             !
 ! D11   D(71,1,39,38)           1.9844         D2E/DX2 =    0.0162             !
 ! D12   D(101,1,39,38)         -5.1015         D2E/DX2 =    0.0086             !
 ! D13   D(2,1,71,42)         -116.7027         D2E/DX2 =    0.0165             !
 ! D14   D(39,1,71,42)        -109.5229         D2E/DX2 =    0.0314             !
 ! D15   D(101,1,71,42)         68.0676         D2E/DX2 =    0.0314             !
 ! D16   D(2,1,101,96)        -163.3728         D2E/DX2 =    0.0153             !
 ! D17   D(39,1,101,96)         20.6757         D2E/DX2 =    0.0111             !
 ! D18   D(71,1,101,96)         14.501          D2E/DX2 =    0.015              !
 ! D19   D(1,2,3,4)           -178.3975         D2E/DX2 =    0.0101             !
 ! D20   D(1,2,3,5)             66.3956         D2E/DX2 =    0.01               !
 ! D21   D(1,2,3,12)           -54.7914         D2E/DX2 =    0.0098             !
 ! D22   D(6,2,3,4)            -54.4723         D2E/DX2 =    0.0129             !
 ! D23   D(6,2,3,5)           -169.6792         D2E/DX2 =    0.0132             !
 ! D24   D(6,2,3,12)            69.1338         D2E/DX2 =    0.0127             !
 ! D25   D(9,2,3,4)             57.7698         D2E/DX2 =    0.0124             !
 ! D26   D(9,2,3,5)            -57.4371         D2E/DX2 =    0.0125             !
 ! D27   D(9,2,3,12)          -178.6241         D2E/DX2 =    0.0122             !
 ! D28   D(1,2,6,7)            171.6626         D2E/DX2 =    0.0097             !
 ! D29   D(1,2,6,8)             56.4717         D2E/DX2 =    0.0094             !
 ! D30   D(1,2,6,20)           -64.1704         D2E/DX2 =    0.01               !
 ! D31   D(3,2,6,7)             48.2622         D2E/DX2 =    0.0124             !
 ! D32   D(3,2,6,8)            -66.9287         D2E/DX2 =    0.0124             !
 ! D33   D(3,2,6,20)           172.4292         D2E/DX2 =    0.0124             !
 ! D34   D(9,2,6,7)            -63.186          D2E/DX2 =    0.012              !
 ! D35   D(9,2,6,8)           -178.3769         D2E/DX2 =    0.0121             !
 ! D36   D(9,2,6,20)            60.981          D2E/DX2 =    0.0122             !
 ! D37   D(1,2,9,10)            56.8437         D2E/DX2 =    0.0095             !
 ! D38   D(1,2,9,11)           -55.228          D2E/DX2 =    0.0094             !
 ! D39   D(1,2,9,16)          -179.3362         D2E/DX2 =    0.0088             !
 ! D40   D(3,2,9,10)          -179.7115         D2E/DX2 =    0.0116             !
 ! D41   D(3,2,9,11)            68.2168         D2E/DX2 =    0.0112             !
 ! D42   D(3,2,9,16)           -55.8914         D2E/DX2 =    0.0111             !
 ! D43   D(6,2,9,10)           -68.4373         D2E/DX2 =    0.0117             !
 ! D44   D(6,2,9,11)           179.491          D2E/DX2 =    0.012              !
 ! D45   D(6,2,9,16)            55.3828         D2E/DX2 =    0.0114             !
 ! D46   D(2,3,12,13)          -62.9114         D2E/DX2 =    0.0127             !
 ! D47   D(2,3,12,14)           57.5823         D2E/DX2 =    0.0129             !
 ! D48   D(2,3,12,15)          177.4746         D2E/DX2 =    0.0132             !
 ! D49   D(4,3,12,13)           59.7556         D2E/DX2 =    0.0144             !
 ! D50   D(4,3,12,14)         -179.7507         D2E/DX2 =    0.0141             !
 ! D51   D(4,3,12,15)          -59.8584         D2E/DX2 =    0.0141             !
 ! D52   D(5,3,12,13)          178.2279         D2E/DX2 =    0.0143             !
 ! D53   D(5,3,12,14)          -61.2784         D2E/DX2 =    0.0149             !
 ! D54   D(5,3,12,15)           58.6139         D2E/DX2 =    0.0143             !
 ! D55   D(2,6,20,21)           57.3594         D2E/DX2 =    0.0133             !
 ! D56   D(2,6,20,22)          176.3147         D2E/DX2 =    0.0131             !
 ! D57   D(2,6,20,23)          -64.3163         D2E/DX2 =    0.0128             !
 ! D58   D(7,6,20,21)         -179.9161         D2E/DX2 =    0.0142             !
 ! D59   D(7,6,20,22)          -60.9609         D2E/DX2 =    0.0139             !
 ! D60   D(7,6,20,23)           58.4082         D2E/DX2 =    0.0145             !
 ! D61   D(8,6,20,21)          -61.2009         D2E/DX2 =    0.015              !
 ! D62   D(8,6,20,22)           57.7544         D2E/DX2 =    0.0144             !
 ! D63   D(8,6,20,23)          177.1234         D2E/DX2 =    0.0146             !
 ! D64   D(2,9,16,17)          179.6193         D2E/DX2 =    0.0131             !
 ! D65   D(2,9,16,18)          -61.1531         D2E/DX2 =    0.0127             !
 ! D66   D(2,9,16,19)           60.351          D2E/DX2 =    0.0127             !
 ! D67   D(10,9,16,17)         -58.9386         D2E/DX2 =    0.0143             !
 ! D68   D(10,9,16,18)          60.289          D2E/DX2 =    0.0145             !
 ! D69   D(10,9,16,19)        -178.2069         D2E/DX2 =    0.0143             !
 ! D70   D(11,9,16,17)          58.1248         D2E/DX2 =    0.0143             !
 ! D71   D(11,9,16,18)         177.3524         D2E/DX2 =    0.0143             !
 ! D72   D(11,9,16,19)         -61.1435         D2E/DX2 =    0.0145             !
 ! D73   D(54,24,25,26)         43.0021         D2E/DX2 =    0.0254             !
 ! D74   D(54,24,25,28)        -77.6759         D2E/DX2 =    0.027              !
 ! D75   D(54,24,25,53)        165.7415         D2E/DX2 =    0.0149             !
 ! D76   D(55,24,25,26)        -71.7746         D2E/DX2 =    0.0234             !
 ! D77   D(55,24,25,28)        167.5474         D2E/DX2 =    0.0259             !
 ! D78   D(55,24,25,53)         50.9647         D2E/DX2 =    0.0131             !
 ! D79   D(24,25,26,27)        -45.0835         D2E/DX2 =    0.0249             !
 ! D80   D(24,25,26,30)        133.0789         D2E/DX2 =    0.0287             !
 ! D81   D(28,25,26,27)         73.6696         D2E/DX2 =    0.047              !
 ! D82   D(28,25,26,30)       -108.168          D2E/DX2 =    0.0742             !
 ! D83   D(53,25,26,27)       -165.9619         D2E/DX2 =    0.0255             !
 ! D84   D(53,25,26,30)         12.2005         D2E/DX2 =    0.0223             !
 ! D85   D(24,25,28,29)       -176.511          D2E/DX2 =    0.0279             !
 ! D86   D(24,25,28,50)        -52.9224         D2E/DX2 =    0.0197             !
 ! D87   D(24,25,28,51)         64.5698         D2E/DX2 =    0.0211             !
 ! D88   D(26,25,28,29)         62.6012         D2E/DX2 =    0.0407             !
 ! D89   D(26,25,28,50)       -173.8102         D2E/DX2 =    0.0277             !
 ! D90   D(26,25,28,51)        -56.3181         D2E/DX2 =    0.0245             !
 ! D91   D(53,25,28,29)        -59.7812         D2E/DX2 =    0.0221             !
 ! D92   D(53,25,28,50)         63.8074         D2E/DX2 =    0.0159             !
 ! D93   D(53,25,28,51)       -178.7005         D2E/DX2 =    0.0186             !
 ! D94   D(25,26,30,31)          4.7705         D2E/DX2 =    0.0618             !
 ! D95   D(25,26,30,58)        178.1745         D2E/DX2 =    0.0581             !
 ! D96   D(27,26,30,31)       -177.072          D2E/DX2 =    0.0513             !
 ! D97   D(27,26,30,58)         -3.668          D2E/DX2 =    0.0293             !
 ! D98   D(25,28,29,52)         61.2445         D2E/DX2 =    0.0242             !
 ! D99   D(50,28,29,52)        -60.0871         D2E/DX2 =    0.0266             !
 ! D100  D(51,28,29,52)       -177.7478         D2E/DX2 =    0.029              !
 ! D101  D(26,30,31,32)         64.2877         D2E/DX2 =    0.0546             !
 ! D102  D(26,30,31,56)        -55.7055         D2E/DX2 =    0.0296             !
 ! D103  D(26,30,31,57)       -173.0507         D2E/DX2 =    0.0336             !
 ! D104  D(58,30,31,32)       -108.8302         D2E/DX2 =    0.0381             !
 ! D105  D(58,30,31,56)        131.1766         D2E/DX2 =    0.0337             !
 ! D106  D(58,30,31,57)         13.8314         D2E/DX2 =    0.0166             !
 ! D107  D(30,31,32,33)       -112.2412         D2E/DX2 =    0.0449             !
 ! D108  D(30,31,32,34)         65.3388         D2E/DX2 =    0.0753             !
 ! D109  D(56,31,32,33)         10.7348         D2E/DX2 =    0.0214             !
 ! D110  D(56,31,32,34)       -171.6852         D2E/DX2 =    0.04               !
 ! D111  D(57,31,32,33)        127.1263         D2E/DX2 =    0.0309             !
 ! D112  D(57,31,32,34)        -55.2936         D2E/DX2 =    0.0395             !
 ! D113  D(31,32,34,35)         -1.3801         D2E/DX2 =    0.0368             !
 ! D114  D(31,32,34,62)       -174.8828         D2E/DX2 =    0.0327             !
 ! D115  D(33,32,34,35)        176.1743         D2E/DX2 =    0.0484             !
 ! D116  D(33,32,34,62)          2.6717         D2E/DX2 =    0.0185             !
 ! D117  D(32,34,35,36)        -78.6612         D2E/DX2 =    0.053              !
 ! D118  D(32,34,35,38)        159.4891         D2E/DX2 =    0.0352             !
 ! D119  D(32,34,35,61)         42.5453         D2E/DX2 =    0.0176             !
 ! D120  D(62,34,35,36)         94.7996         D2E/DX2 =    0.0206             !
 ! D121  D(62,34,35,38)        -27.0501         D2E/DX2 =    0.0146             !
 ! D122  D(62,34,35,61)       -143.9939         D2E/DX2 =    0.0181             !
 ! D123  D(34,35,36,37)        158.0859         D2E/DX2 =    0.0328             !
 ! D124  D(34,35,36,40)        -28.7795         D2E/DX2 =    0.0293             !
 ! D125  D(38,35,36,37)        -78.7216         D2E/DX2 =    0.018              !
 ! D126  D(38,35,36,40)         94.413          D2E/DX2 =    0.0258             !
 ! D127  D(61,35,36,37)         34.8837         D2E/DX2 =    0.0155             !
 ! D128  D(61,35,36,40)       -151.9817         D2E/DX2 =    0.0217             !
 ! D129  D(34,35,38,39)         44.8322         D2E/DX2 =    0.0366             !
 ! D130  D(34,35,38,59)        -70.8004         D2E/DX2 =    0.0338             !
 ! D131  D(34,35,38,60)        170.9347         D2E/DX2 =    0.0369             !
 ! D132  D(36,35,38,39)        -82.7625         D2E/DX2 =    0.0274             !
 ! D133  D(36,35,38,59)        161.605          D2E/DX2 =    0.0245             !
 ! D134  D(36,35,38,60)         43.34           D2E/DX2 =    0.0217             !
 ! D135  D(61,35,38,39)        163.9112         D2E/DX2 =    0.0165             !
 ! D136  D(61,35,38,59)         48.2787         D2E/DX2 =    0.0141             !
 ! D137  D(61,35,38,60)        -69.9863         D2E/DX2 =    0.0138             !
 ! D138  D(35,36,40,41)       -148.0395         D2E/DX2 =    0.0297             !
 ! D139  D(35,36,40,66)         19.6274         D2E/DX2 =    0.0177             !
 ! D140  D(37,36,40,41)         24.6519         D2E/DX2 =    0.0173             !
 ! D141  D(37,36,40,66)       -167.6812         D2E/DX2 =    0.0173             !
 ! D142  D(35,38,39,1)          87.3782         D2E/DX2 =    0.0328             !
 ! D143  D(59,38,39,1)        -153.72           D2E/DX2 =    0.0289             !
 ! D144  D(60,38,39,1)         -37.945          D2E/DX2 =    0.0272             !
 ! D145  D(36,40,41,42)        106.0002         D2E/DX2 =    0.017              !
 ! D146  D(36,40,41,43)       -133.1613         D2E/DX2 =    0.024              !
 ! D147  D(36,40,41,65)        -12.9142         D2E/DX2 =    0.0124             !
 ! D148  D(66,40,41,42)        -62.018          D2E/DX2 =    0.0159             !
 ! D149  D(66,40,41,43)         58.8205         D2E/DX2 =    0.0177             !
 ! D150  D(66,40,41,65)        179.0676         D2E/DX2 =    0.0125             !
 ! D151  D(40,41,42,63)       -177.7446         D2E/DX2 =    0.0151             !
 ! D152  D(40,41,42,64)         62.3878         D2E/DX2 =    0.0164             !
 ! D153  D(40,41,42,71)        -60.2433         D2E/DX2 =    0.0173             !
 ! D154  D(43,41,42,63)         60.5465         D2E/DX2 =    0.0169             !
 ! D155  D(43,41,42,64)        -59.3211         D2E/DX2 =    0.0161             !
 ! D156  D(43,41,42,71)        178.0478         D2E/DX2 =    0.025              !
 ! D157  D(65,41,42,63)        -61.4358         D2E/DX2 =    0.0135             !
 ! D158  D(65,41,42,64)        178.6967         D2E/DX2 =    0.0135             !
 ! D159  D(65,41,42,71)         56.0655         D2E/DX2 =    0.0158             !
 ! D160  D(40,41,43,44)        -83.1581         D2E/DX2 =    0.0201             !
 ! D161  D(40,41,43,45)         98.1568         D2E/DX2 =    0.0272             !
 ! D162  D(42,41,43,44)         37.6513         D2E/DX2 =    0.0165             !
 ! D163  D(42,41,43,45)       -141.0338         D2E/DX2 =    0.0207             !
 ! D164  D(65,41,43,44)        159.3674         D2E/DX2 =    0.0141             !
 ! D165  D(65,41,43,45)        -19.3177         D2E/DX2 =    0.0154             !
 ! D166  D(41,42,71,1)         140.9523         D2E/DX2 =    0.0235             !
 ! D167  D(63,42,71,1)         -97.7947         D2E/DX2 =    0.0213             !
 ! D168  D(64,42,71,1)          17.2465         D2E/DX2 =    0.0244             !
 ! D169  D(41,43,45,46)        -15.6753         D2E/DX2 =    0.0116             !
 ! D170  D(41,43,45,69)       -172.3372         D2E/DX2 =    0.0121             !
 ! D171  D(44,43,45,46)        165.6601         D2E/DX2 =    0.0183             !
 ! D172  D(44,43,45,69)          8.9981         D2E/DX2 =    0.0133             !
 ! D173  D(43,45,46,47)       -149.6326         D2E/DX2 =    0.0132             !
 ! D174  D(43,45,46,67)         91.7337         D2E/DX2 =    0.0161             !
 ! D175  D(43,45,46,68)        -29.5383         D2E/DX2 =    0.0146             !
 ! D176  D(69,45,46,47)          7.1539         D2E/DX2 =    0.0132             !
 ! D177  D(69,45,46,67)       -111.4797         D2E/DX2 =    0.0162             !
 ! D178  D(69,45,46,68)        127.2483         D2E/DX2 =    0.0153             !
 ! D179  D(45,46,47,48)         -6.697          D2E/DX2 =    0.0206             !
 ! D180  D(45,46,47,49)        175.2949         D2E/DX2 =    0.0217             !
 ! D181  D(67,46,47,48)        114.8163         D2E/DX2 =    0.0195             !
 ! D182  D(67,46,47,49)        -63.1918         D2E/DX2 =    0.0196             !
 ! D183  D(68,46,47,48)       -129.2548         D2E/DX2 =    0.0197             !
 ! D184  D(68,46,47,49)         52.737          D2E/DX2 =    0.02               !
 ! D185  D(46,47,49,70)        179.1143         D2E/DX2 =    0.0169             !
 ! D186  D(48,47,49,70)          1.0745         D2E/DX2 =    0.0167             !
 ! D187  D(80,72,76,77)        -62.8921         D2E/DX2 =    0.0194             !
 ! D188  D(80,72,76,81)         56.9594         D2E/DX2 =    0.0256             !
 ! D189  D(80,72,76,94)        177.6067         D2E/DX2 =    0.0464             !
 ! D190  D(76,72,80,79)         62.1691         D2E/DX2 =    0.0219             !
 ! D191  D(76,72,80,85)        -57.414          D2E/DX2 =    0.0205             !
 ! D192  D(76,72,80,89)       -175.67           D2E/DX2 =    0.0461             !
 ! D193  D(86,73,77,76)       -165.677          D2E/DX2 =    0.0122             !
 ! D194  D(86,73,77,78)        -46.2253         D2E/DX2 =    0.0135             !
 ! D195  D(86,73,77,82)         75.54           D2E/DX2 =    0.0125             !
 ! D196  D(87,74,78,77)        176.1914         D2E/DX2 =    0.0121             !
 ! D197  D(87,74,78,79)         52.3414         D2E/DX2 =    0.0128             !
 ! D198  D(87,74,78,83)        -66.8259         D2E/DX2 =    0.0134             !
 ! D199  D(88,75,79,78)       -168.5629         D2E/DX2 =    0.0149             !
 ! D200  D(88,75,79,80)        -48.9321         D2E/DX2 =    0.0156             !
 ! D201  D(88,75,79,84)         73.147          D2E/DX2 =    0.0148             !
 ! D202  D(72,76,77,73)        176.0956         D2E/DX2 =    0.0271             !
 ! D203  D(72,76,77,78)         55.6352         D2E/DX2 =    0.021              !
 ! D204  D(72,76,77,82)        -62.814          D2E/DX2 =    0.022              !
 ! D205  D(81,76,77,73)         56.8043         D2E/DX2 =    0.0201             !
 ! D206  D(81,76,77,78)        -63.6561         D2E/DX2 =    0.0186             !
 ! D207  D(81,76,77,82)        177.8947         D2E/DX2 =    0.016              !
 ! D208  D(94,76,77,73)        -65.6566         D2E/DX2 =    0.0253             !
 ! D209  D(94,76,77,78)        173.883          D2E/DX2 =    0.0258             !
 ! D210  D(94,76,77,82)         55.4338         D2E/DX2 =    0.0203             !
 ! D211  D(72,76,94,95)        -66.4307         D2E/DX2 =    0.0315             !
 ! D212  D(77,76,94,95)        174.4524         D2E/DX2 =    0.0189             !
 ! D213  D(81,76,94,95)         52.793          D2E/DX2 =    0.022              !
 ! D214  D(73,77,78,74)         62.5026         D2E/DX2 =    0.0221             !
 ! D215  D(73,77,78,79)       -173.9627         D2E/DX2 =    0.0209             !
 ! D216  D(73,77,78,83)        -55.5707         D2E/DX2 =    0.0187             !
 ! D217  D(76,77,78,74)       -177.5232         D2E/DX2 =    0.0223             !
 ! D218  D(76,77,78,79)        -53.9885         D2E/DX2 =    0.0158             !
 ! D219  D(76,77,78,83)         64.4034         D2E/DX2 =    0.0175             !
 ! D220  D(82,77,78,74)        -60.3226         D2E/DX2 =    0.0186             !
 ! D221  D(82,77,78,79)         63.2121         D2E/DX2 =    0.0165             !
 ! D222  D(82,77,78,83)       -178.3959         D2E/DX2 =    0.0151             !
 ! D223  D(74,78,79,75)        -63.2145         D2E/DX2 =    0.0239             !
 ! D224  D(74,78,79,80)        174.3685         D2E/DX2 =    0.0222             !
 ! D225  D(74,78,79,84)         56.4921         D2E/DX2 =    0.0188             !
 ! D226  D(77,78,79,75)        175.8972         D2E/DX2 =    0.0251             !
 ! D227  D(77,78,79,80)         53.4802         D2E/DX2 =    0.0146             !
 ! D228  D(77,78,79,84)        -64.3962         D2E/DX2 =    0.0169             !
 ! D229  D(83,78,79,75)         57.218          D2E/DX2 =    0.0205             !
 ! D230  D(83,78,79,80)        -65.199          D2E/DX2 =    0.0171             !
 ! D231  D(83,78,79,84)        176.9246         D2E/DX2 =    0.0151             !
 ! D232  D(75,79,80,72)       -173.0149         D2E/DX2 =    0.0278             !
 ! D233  D(75,79,80,85)        -51.8732         D2E/DX2 =    0.0202             !
 ! D234  D(75,79,80,89)         69.921          D2E/DX2 =    0.0304             !
 ! D235  D(78,79,80,72)        -54.8288         D2E/DX2 =    0.0203             !
 ! D236  D(78,79,80,85)         66.3129         D2E/DX2 =    0.0168             !
 ! D237  D(78,79,80,89)       -171.8928         D2E/DX2 =    0.024              !
 ! D238  D(84,79,80,72)         63.3991         D2E/DX2 =    0.0201             !
 ! D239  D(84,79,80,85)       -175.4592         D2E/DX2 =    0.0145             !
 ! D240  D(84,79,80,89)        -53.665          D2E/DX2 =    0.0179             !
 ! D241  D(72,80,89,90)         63.1328         D2E/DX2 =    0.0183             !
 ! D242  D(72,80,89,91)        -55.0233         D2E/DX2 =    0.017              !
 ! D243  D(72,80,89,92)       -175.4157         D2E/DX2 =    0.0206             !
 ! D244  D(79,80,89,90)       -177.4629         D2E/DX2 =    0.0168             !
 ! D245  D(79,80,89,91)         64.381          D2E/DX2 =    0.0151             !
 ! D246  D(79,80,89,92)        -56.0113         D2E/DX2 =    0.0182             !
 ! D247  D(85,80,89,90)        -56.1959         D2E/DX2 =    0.0162             !
 ! D248  D(85,80,89,91)       -174.3521         D2E/DX2 =    0.0175             !
 ! D249  D(85,80,89,92)         65.2556         D2E/DX2 =    0.0166             !
 ! D250  D(80,89,92,93)       -179.2851         D2E/DX2 =    0.0179             !
 ! D251  D(90,89,92,93)        -58.5219         D2E/DX2 =    0.0282             !
 ! D252  D(91,89,92,93)         62.0316         D2E/DX2 =    0.0285             !
 ! D253  D(76,94,95,96)        169.5597         D2E/DX2 =    0.0236             !
 ! D254  D(76,94,95,97)         48.5891         D2E/DX2 =    0.0275             !
 ! D255  D(76,94,95,98)        -69.9989         D2E/DX2 =    0.0259             !
 ! D256  D(94,95,96,99)        175.4514         D2E/DX2 =    0.0202             !
 ! D257  D(94,95,96,100)        58.6914         D2E/DX2 =    0.0199             !
 ! D258  D(94,95,96,101)       -63.5538         D2E/DX2 =    0.0188             !
 ! D259  D(97,95,96,99)        -64.1592         D2E/DX2 =    0.0173             !
 ! D260  D(97,95,96,100)       179.0807         D2E/DX2 =    0.0172             !
 ! D261  D(97,95,96,101)        56.8355         D2E/DX2 =    0.0167             !
 ! D262  D(98,95,96,99)         55.2395         D2E/DX2 =    0.0163             !
 ! D263  D(98,95,96,100)       -61.5206         D2E/DX2 =    0.0167             !
 ! D264  D(98,95,96,101)       176.2343         D2E/DX2 =    0.0168             !
 ! D265  D(95,96,101,1)       -111.6441         D2E/DX2 =    0.0595             !
 ! D266  D(99,96,101,1)          8.6425         D2E/DX2 =    0.0354             !
 ! D267  D(100,96,101,1)       125.1803         D2E/DX2 =    0.0348             !
 --------------------------------------------------------------------------------
 Trust Radius=3.00D-01 FncErr=1.00D-07 GrdErr=1.00D-06
 Number of steps in this run=    564 maximum allowed number of steps=    606.
 Search for a saddle point of order  1.
 GradGradGradGradGradGradGradGradGradGradGradGradGradGradGradGradGradGrad

 Stoichiometry    C27H51AuN5O13PS2Se
 Framework group  C1[X(C27H51AuN5O13PS2Se)]
 Deg. of freedom   297
 Full point group                 C1      NOp   1
 Largest Abelian subgroup         C1      NOp   1
 Largest concise Abelian subgroup C1      NOp   1
                         Standard orientation:                         
 ---------------------------------------------------------------------
 Center     Atomic      Atomic             Coordinates (Angstroms)
 Number     Number       Type             X           Y           Z
 ---------------------------------------------------------------------
      1         79           0       -0.894280   -2.639704   -0.460904
      2         15           0       -1.103244   -4.420472    1.087990
      3          6           0       -1.014433   -6.086386    0.275251
      4          1           0       -1.146120   -6.861444    1.040629
      5          1           0        0.007103   -6.181130   -0.113224
      6          6           0       -2.713419   -4.415160    2.002625
      7          1           0       -2.786913   -5.346075    2.579894
      8          1           0       -3.495659   -4.439271    1.235963
      9          6           0        0.233454   -4.430195    2.375938
     10          1           0        0.186276   -3.450884    2.866495
     11          1           0        1.180973   -4.442662    1.822925
     12          6           0       -2.031991   -6.270922   -0.859151
     13          1           0       -3.063121   -6.212503   -0.495740
     14          1           0       -1.906951   -5.505181   -1.631252
     15          1           0       -1.899252   -7.253204   -1.325864
     16          6           0        0.192950   -5.556945    3.416833
     17          1           0        1.034788   -5.452695    4.110681
     18          1           0       -0.727175   -5.530919    4.010451
     19          1           0        0.270467   -6.546514    2.954555
     20          6           0       -2.912824   -3.189281    2.905376
     21          1           0       -2.841455   -2.259738    2.331758
     22          1           0       -3.908677   -3.223297    3.359721
     23          1           0       -2.178692   -3.155839    3.718389
     24          7           0        5.212271    3.440643    3.169265
     25          6           0        4.878733    2.170029    2.518920
     26          6           0        5.124467    2.251321    1.000049
     27          8           0        4.739373    3.238028    0.375408
     28          6           0        3.386636    1.881981    2.811427
     29          8           0        2.925170    0.630692    2.307588
     30          7           0        5.800911    1.251555    0.347073
     31          6           0        6.289245   -0.015909    0.876721
     32          6           0        5.173522   -0.960539    1.352314
     33          8           0        5.050073   -1.219402    2.553242
     34          7           0        4.306449   -1.457117    0.434047
     35          6           0        4.231054   -1.216926   -0.996308
     36          6           0        3.580599    0.104161   -1.446640
     37          8           0        3.849684    0.538783   -2.566143
     38          6           0        3.438995   -2.367973   -1.676574
     39         16           0        1.871030   -2.909817   -0.846863
     40          7           0        2.636185    0.632114   -0.628073
     41          6           0        1.524848    1.391741   -1.185811
     42          6           0        0.247113    0.547685   -1.120181
     43          6           0        1.312110    2.708506   -0.407602
     44          8           0        0.659500    2.722542    0.634995
     45          7           0        1.849668    3.837631   -0.938239
     46          6           0        2.859166    3.937415   -1.975552
     47          6           0        3.667780    5.198786   -1.738274
     48          8           0        3.417648    6.038363   -0.902203
     49          8           0        4.688446    5.294377   -2.611548
     50          1           0        3.252372    1.946709    3.898195
     51          1           0        2.763060    2.646162    2.340913
     52          1           0        3.441418   -0.075898    2.738983
     53          1           0        5.476213    1.378132    2.981313
     54          1           0        4.841584    4.191316    2.585037
     55          1           0        6.222982    3.568987    3.180212
     56          1           0        6.945587    0.136052    1.737081
     57          1           0        6.884092   -0.485923    0.087309
     58          1           0        5.870858    1.408905   -0.652336
     59          1           0        4.051387   -3.277786   -1.654599
     60          1           0        3.248401   -2.100469   -2.717568
     61          1           0        5.235752   -1.227426   -1.432371
     62          1           0        3.544756   -2.008961    0.824976
     63          1           0       -0.599010    1.074628   -1.567894
     64          1           0       -0.013819    0.317966   -0.087854
     65          1           0        1.789352    1.596268   -2.224567
     66          1           0        2.580868    0.355168    0.353530
     67          1           0        2.416508    4.011036   -2.979888
     68          1           0        3.540633    3.083553   -1.980388
     69          1           0        1.792902    4.655979   -0.337539
     70          1           0        5.148890    6.130156   -2.407114
     71         34           0        0.385869   -1.162223   -2.151079
     72          8           0       -3.849779    2.492140    0.284752
     73          8           0       -7.139905    2.483771   -1.298624
     74          8           0       -7.561793    4.109546    0.956536
     75          8           0       -5.273156    5.476488    1.912547
     76          6           0       -4.797211    2.324093   -0.775442
     77          6           0       -6.207664    2.560226   -0.235115
     78          6           0       -6.256597    3.943156    0.413339
     79          6           0       -5.172126    4.130840    1.468004
     80          6           0       -3.804803    3.798009    0.842752
     81          1           0       -4.574477    3.058862   -1.573953
     82          1           0       -6.404851    1.789967    0.526012
     83          1           0       -6.084899    4.695161   -0.375752
     84          1           0       -5.354832    3.425788    2.296444
     85          1           0       -3.581912    4.551660    0.068307
     86          1           0       -7.963264    2.863606   -0.947933
     87          1           0       -7.552619    4.966019    1.415756
     88          1           0       -4.473245    5.649690    2.443352
     89          6           0       -2.664596    3.761171    1.858086
     90          1           0       -1.713165    3.564813    1.349125
     91          1           0       -2.852962    2.938113    2.562510
     92          8           0       -2.639119    5.025514    2.535349
     93          1           0       -1.910687    5.013104    3.173169
     94          8           0       -4.683646    1.028731   -1.245423
     95          6           0       -3.433367    0.771553   -1.880321
     96          6           0       -3.271344   -0.718007   -2.139902
     97          1           0       -2.624620    1.130504   -1.236658
     98          1           0       -3.392502    1.320899   -2.838164
     99          1           0       -2.331439   -0.858153   -2.704047
    100          1           0       -4.089610   -1.081119   -2.770702
    101         16           0       -3.210916   -1.743795   -0.626569
 ---------------------------------------------------------------------
 Rotational constants (GHZ):      0.0404262      0.0350324      0.0230532
 General basis read from cards:  (5D, 7F)
 ======================================================================================================
                                       Pseudopotential Parameters
 ======================================================================================================
  Center     Atomic      Valence      Angular      Power
  Number     Number     Electrons     Momentum     of R      Exponent        Coefficient   SO-Coeffient
 ======================================================================================================
    1         79           19
                                      G and up 
                                                     1      622.6287956      -60.00000000    0.00000000
                                                     2      136.2843607     -555.52923120    0.00000000
                                                     2       33.1549781     -168.00197850    0.00000000
                                                     2        9.9894895      -63.03998750    0.00000000
                                                     2        3.0481312       -4.25166810    0.00000000
                                      S - G
                                                     0      194.7374304        3.00000000    0.00000000
                                                     1      351.5327447       38.60208800    0.00000000
                                                     2      122.3270402      864.83707270    0.00000000
                                                     2       32.0914617      374.99355200    0.00000000
                                                     2        5.2451812      289.79101000    0.00000000
                                                     2        4.4916223     -152.45327730    0.00000000
                                      P - G
                                                     0      420.6158801        2.00000000    0.00000000
                                                     1      109.4417815       73.88856250    0.00000000
                                                     2       34.1714280      326.67298720    0.00000000
                                                     2        5.9879750      126.58145910    0.00000000
                                      D - G
                                                     0      219.2666158        3.00000000    0.00000000
                                                     1      122.7297786       55.67931490    0.00000000
                                                     2       63.1063369      449.19873350    0.00000000
                                                     2       18.3684520      215.02690910    0.00000000
                                                     2        4.4972844       64.08409950    0.00000000
                                      F - G
                                                     0      108.5506037        4.00000000    0.00000000
                                                     1       56.4795527       51.80653350    0.00000000
                                                     2       29.2069159      231.21831130    0.00000000
                                                     2        9.5440543      119.00473860    0.00000000
                                                     2        2.8965118       15.34241880    0.00000000
    2         15
                                   No pseudopotential on this center.
    3          6
                                   No pseudopotential on this center.
    4          1
                                   No pseudopotential on this center.
    5          1
                                   No pseudopotential on this center.
    6          6
                                   No pseudopotential on this center.
    7          1
                                   No pseudopotential on this center.
    8          1
                                   No pseudopotential on this center.
    9          6
                                   No pseudopotential on this center.
   10          1
                                   No pseudopotential on this center.
   11          1
                                   No pseudopotential on this center.
   12          6
                                   No pseudopotential on this center.
   13          1
                                   No pseudopotential on this center.
   14          1
                                   No pseudopotential on this center.
   15          1
                                   No pseudopotential on this center.
   16          6
                                   No pseudopotential on this center.
   17          1
                                   No pseudopotential on this center.
   18          1
                                   No pseudopotential on this center.
   19          1
                                   No pseudopotential on this center.
   20          6
                                   No pseudopotential on this center.
   21          1
                                   No pseudopotential on this center.
   22          1
                                   No pseudopotential on this center.
   23          1
                                   No pseudopotential on this center.
   24          7
                                   No pseudopotential on this center.
   25          6
                                   No pseudopotential on this center.
   26          6
                                   No pseudopotential on this center.
   27          8
                                   No pseudopotential on this center.
   28          6
                                   No pseudopotential on this center.
   29          8
                                   No pseudopotential on this center.
   30          7
                                   No pseudopotential on this center.
   31          6
                                   No pseudopotential on this center.
   32          6
                                   No pseudopotential on this center.
   33          8
                                   No pseudopotential on this center.
   34          7
                                   No pseudopotential on this center.
   35          6
                                   No pseudopotential on this center.
   36          6
                                   No pseudopotential on this center.
   37          8
                                   No pseudopotential on this center.
   38          6
                                   No pseudopotential on this center.
   39         16
                                   No pseudopotential on this center.
   40          7
                                   No pseudopotential on this center.
   41          6
                                   No pseudopotential on this center.
   42          6
                                   No pseudopotential on this center.
   43          6
                                   No pseudopotential on this center.
   44          8
                                   No pseudopotential on this center.
   45          7
                                   No pseudopotential on this center.
   46          6
                                   No pseudopotential on this center.
   47          6
                                   No pseudopotential on this center.
   48          8
                                   No pseudopotential on this center.
   49          8
                                   No pseudopotential on this center.
   50          1
                                   No pseudopotential on this center.
   51          1
                                   No pseudopotential on this center.
   52          1
                                   No pseudopotential on this center.
   53          1
                                   No pseudopotential on this center.
   54          1
                                   No pseudopotential on this center.
   55          1
                                   No pseudopotential on this center.
   56          1
                                   No pseudopotential on this center.
   57          1
                                   No pseudopotential on this center.
   58          1
                                   No pseudopotential on this center.
   59          1
                                   No pseudopotential on this center.
   60          1
                                   No pseudopotential on this center.
   61          1
                                   No pseudopotential on this center.
   62          1
                                   No pseudopotential on this center.
   63          1
                                   No pseudopotential on this center.
   64          1
                                   No pseudopotential on this center.
   65          1
                                   No pseudopotential on this center.
   66          1
                                   No pseudopotential on this center.
   67          1
                                   No pseudopotential on this center.
   68          1
                                   No pseudopotential on this center.
   69          1
                                   No pseudopotential on this center.
   70          1
                                   No pseudopotential on this center.
   71         34
                                   No pseudopotential on this center.
   72          8
                                   No pseudopotential on this center.
   73          8
                                   No pseudopotential on this center.
   74          8
                                   No pseudopotential on this center.
   75          8
                                   No pseudopotential on this center.
   76          6
                                   No pseudopotential on this center.
   77          6
                                   No pseudopotential on this center.
   78          6
                                   No pseudopotential on this center.
   79          6
                                   No pseudopotential on this center.
   80          6
                                   No pseudopotential on this center.
   81          1
                                   No pseudopotential on this center.
   82          1
                                   No pseudopotential on this center.
   83          1
                                   No pseudopotential on this center.
   84          1
                                   No pseudopotential on this center.
   85          1
                                   No pseudopotential on this center.
   86          1
                                   No pseudopotential on this center.
   87          1
                                   No pseudopotential on this center.
   88          1
                                   No pseudopotential on this center.
   89          6
                                   No pseudopotential on this center.
   90          1
                                   No pseudopotential on this center.
   91          1
                                   No pseudopotential on this center.
   92          8
                                   No pseudopotential on this center.
   93          1
                                   No pseudopotential on this center.
   94          8
                                   No pseudopotential on this center.
   95          6
                                   No pseudopotential on this center.
   96          6
                                   No pseudopotential on this center.
   97          1
                                   No pseudopotential on this center.
   98          1
                                   No pseudopotential on this center.
   99          1
                                   No pseudopotential on this center.
  100          1
                                   No pseudopotential on this center.
  101         16
                                   No pseudopotential on this center.
 ======================================================================================================
 There are   912 symmetry adapted cartesian basis functions of A   symmetry.
 There are   856 symmetry adapted basis functions of A   symmetry.
   856 basis functions,  1751 primitive gaussians,   912 cartesian basis functions
   226 alpha electrons      226 beta electrons
       nuclear repulsion energy      9872.7980211203 Hartrees.
 NAtoms=  101 NActive=  101 NUniq=  101 SFac= 1.00D+00 NAtFMM=   60 NAOKFM=T Big=T
 Integral buffers will be    131072 words long.
 Raffenetti 2 integral format.
 Two-electron integral symmetry is turned on.
 One-electron integrals computed using PRISM.
   1 Symmetry operations used in ECPInt.
 ECPInt:  NShTT=   52326 NPrTT=  317529 LenC2=   35214 LenP2D=  104855.
 LDataN:  DoStor=T MaxTD1= 7 Len=  274
 NBasis=   856 RedAO= T EigKep=  2.07D-03  NBF=   856
 NBsUse=   856 1.00D-06 EigRej= -1.00D+00 NBFU=   856
 Defaulting to unpruned grid for atomic number  79.
 ExpMin= 2.79D-02 ExpMax= 5.61D+05 ExpMxC= 5.42D+03 IAcc=3 IRadAn=         5 AccDes= 0.00D+00
 Harris functional with IExCor=  402 and IRadAn=       5 diagonalized for initial guess.
 HarFok:  IExCor=  402 AccDes= 0.00D+00 IRadAn=         5 IDoV= 1 UseB2=F ITyADJ=14
 ICtDFT=  3500011 ScaDFX=  1.000000  1.000000  1.000000  1.000000
 Defaulting to unpruned grid for atomic number  79.
 Defaulting to unpruned grid for atomic number  79.
 Defaulting to unpruned grid for atomic number  79.
 Defaulting to unpruned grid for atomic number  79.
 Defaulting to unpruned grid for atomic number  79.
 Defaulting to unpruned grid for atomic number  79.
 Defaulting to unpruned grid for atomic number  79.
 Defaulting to unpruned grid for atomic number  79.
 Defaulting to unpruned grid for atomic number  79.
 Defaulting to unpruned grid for atomic number  79.
 Defaulting to unpruned grid for atomic number  79.
 Defaulting to unpruned grid for atomic number  79.
 Defaulting to unpruned grid for atomic number  79.
 Defaulting to unpruned grid for atomic number  79.
 Defaulting to unpruned grid for atomic number  79.
 FoFCou: FMM=F IPFlag=           0 FMFlag=      100000 FMFlg1=        2001
         NFxFlg=           0 DoJE=T BraDBF=F KetDBF=T FulRan=T
         wScrn=  0.000000 ICntrl=     500 IOpCl=  0 I1Cent=   200000004 NGrid=           0
         NMat0=    1 NMatS0=      1 NMatT0=    0 NMatD0=    1 NMtDS0=    0 NMtDT0=    0
 Petite list used in FoFCou.
 Requested convergence on RMS density matrix=1.00D-08 within 128 cycles.
 Requested convergence on MAX density matrix=1.00D-06.
 Requested convergence on             energy=1.00D-06.
 No special actions if energy rises.
 Defaulting to unpruned grid for atomic number  79.
 Defaulting to unpruned grid for atomic number  79.
 Defaulting to unpruned grid for atomic number  79.
 Defaulting to unpruned grid for atomic number  79.
 Defaulting to unpruned grid for atomic number  79.
 Defaulting to unpruned grid for atomic number  79.
 Defaulting to unpruned grid for atomic number  79.
 Defaulting to unpruned grid for atomic number  79.
 Defaulting to unpruned grid for atomic number  79.
 Defaulting to unpruned grid for atomic number  79.
 Defaulting to unpruned grid for atomic number  79.
 Defaulting to unpruned grid for atomic number  79.
 Defaulting to unpruned grid for atomic number  79.
 Defaulting to unpruned grid for atomic number  79.
 Defaulting to unpruned grid for atomic number  79.
[...]
 -0.00000126,0.00001016,0.00000277,-0.00003047,-0.00000815,-0.00000583,
 0.00002504,0.00000647,-0.00000668,0.00001019,0.00000013,0.00000243,0.0
 0000538,0.00000815,0.00000296,0.00000591,-0.00000223,0.00001228,-0.000
 02597,-0.00001601,-0.00000575,-0.00000179,-0.00000369,0.00000441,-0.00
 000450,-0.00000834,0.00000085,-0.00000061,-0.00000545,0.00000457,0.000
 00848,0.00000143,-0.00000624,0.00000381,-0.00000174,-0.00001574,-0.000
 01137,0.00000021,0.00001816,0.00008039,-0.00001677,0.00002619,0.000058
 34,-0.00001936,0.00001566,0.00001185,0.00000728,-0.00007199,-0.0000691
 4,-0.00005525,0.00034174,0.00025079,0.00000878,0.00014154,0.00000168,-
 0.00006625,0.00000955,-0.00000831,-0.00000726,-0.00002117,-0.00004229,
 -0.00003501,0.00000403,-0.00000320,-0.00000320,-0.00000651,-0.00001115
 ,-0.00000059,0.00002369,-0.00000062,0.00000300,0.00000315,-0.00000476,
 0.00000384,-0.00121818,0.00068630,-0.00027100,0.00042343,-0.00030348,-
 0.00044220,0.00010085,0.00001776,0.00007027,0.00008166,-0.00003912,-0.
 00003774,0.00006137,-0.00008964,-0.00008124,-0.00039514,0.00016097,0.0
 0015768,-0.00012926,-0.00003839,-0.00010537,-0.00003370,0.00005872,0.0
 0002650,-0.00006677,-0.00003311,0.00003269,0.00016642,0.00032626,0.000
 18842,-0.00001895,0.00008781,-0.00001590,0.00002777,-0.00001017,-0.000
 00188,-0.00000047,-0.00000042,-0.00000293,0.00000842,0.00000534,-0.000
 00942,-0.00001000,-0.00002453,-0.00000713,-0.00000815,0.00000019,0.000
 00026,-0.00001091,0.00000395,0.00000340,0.00000730,0.00001807,0.000029
 80,0.00003202,0.00002928,0.00008245,0.00003096,0.00000067,0.00001187,0
 .00000625,0.00000252,-0.00001573,-0.00003522,-0.00005660,-0.00007293,0
 .00000944,-0.00000145,0.00000633,0.00033229,0.00256216,0.00116345,-0.0
 2797441,-0.01419917,-0.02039916,-0.06475606,-0.07787559,-0.05495181,0.
 00170984,-0.00636965,-0.00073706,0.00006929,0.00134397,0.00052815,0.00
 378475,0.00182679,0.00228215,0.07612233,0.09190569,0.00011640,-0.00061
 869,-0.00066858,0.00018818,0.00020583,0.00009958,0.00000661,0.00008048
 ,-0.00013043,0.00001259,0.00006730,0.00002593,0.00000592,0.00000041,0.
 00000841,-0.00002007,-0.00007347,-0.00000696,-0.00000104,0.00003917,0.
 00001304,-0.00002096,-0.00002615,0.00000319,0.00000217,-0.00002325,0.0
 0003441,0.00001348,0.00000351,-0.00000208,-0.00002183,0.00000537,0.000
 00463,-0.00003167,0.00002247,-0.00001101,0.00000838,-0.00000197,-0.000
 01937,-0.00001638,-0.00001824,-0.00001166,0.00000490,0.00001638,0.0000
 0726,-0.00000593,-0.00000464,-0.00000284,-0.00001048,0.00000279,-0.000
 00802,0.00000233,-0.00000485,0.00000649,0.00000176,0.00000370,0.000004
 10,-0.00002945,-0.00017072,-0.00003582,0.00000994,0.00012277,0.0001069
 8,0.00002050,0.00005490,-0.00004950,-0.00000924,0.00006686,-0.00005907
 ,-0.00000458,-0.00001212,-0.00001250,0.00000402,0.00000503,0.00000396,
 -0.00000942,0.00003073,0.00000874,-0.00000073,-0.00002449,0.00000181,0
 .00001236,0.00004045,0.00001363,-0.00002072,-0.00004481,-0.00001665,-0
 .00000878,-0.00002498,-0.00001440,0.00000269,0.00000575,-0.00000151,0.
 00005188,0.00002650,0.00006325,-0.00001917,-0.00000980,-0.00003782,-0.
 00004911,-0.00003073,-0.00003767,0.00002018,-0.00002638,0.00001709,0.0
 0004973,0.00002077,-0.00003324,-0.00003437,-0.00003221,0.00002719,0.00
 031965,-0.00041278,0.00017229,0.00017251,0.00131882,-0.00090169,-0.000
 04928,-0.00001800,-0.00000752,0.00004922,-0.00000138,0.00000260,0.0000
 8763,-0.00001787,0.00011673,-0.00000871,0.00010301,0.00001050,0.000005
 22,-0.00006715,-0.00000926,0.00000040,-0.00006515,0.00000647,0.0000003
 1,-0.00000275,-0.00002186,0.00002163,0.00003730,-0.00000170,-0.0000081
 8,-0.00002585,-0.00000139,-0.00001280,-0.00001475,0.00000928,-0.000001
 77,-0.00000261,-0.00000491,-0.00000004,-0.00000099,0.00000219,0.000005
 58,0.00000942,0.00000307,0.00000175,0.00000080,0.00000108,-0.00000087,
 0.00000368,0.00000520,-0.00000122,-0.00000016,0.00000486,-0.00000167,-
 0.00000274,-0.00000164,0.00000196,-0.00000165,0.00000192,0.00001200,0.
 00000634,0.00000018,0.00013775,0.00004023,-0.00006454,-0.00003255,-0.0
 0004313,0.00003484,-0.00001307,0.00000394,0.00000245,0.00002974,0.0000
 2268,0.00001278,-0.00001617,-0.00018188,-0.00009277,0.00000532,0.00001
 913,0.00002400,-0.00000988,-0.00000291,-0.00000325,0.00002253,0.000021
 00,0.00001897,-0.00000283,0.00000230,0.00000454,0.00000278,0.00000574,
 0.00000303,-0.00000762,0.00000869,0.00000303,0.00000047,0.00000382,-0.
 00000379,0.00016875,-0.00089439,0.00058178,0.00025883,0.00027676,0.000
 34491,0.00002317,0.00010585,0.00006398,-0.00001663,0.00004586,0.000060
 85,0.00002609,0.00005183,0.00005388,0.00001812,-0.00069789,-0.00053167
 ,-0.00001855,-0.00002253,-0.00007688,-0.00000341,-0.00005215,-0.000041
 60,-0.00001613,-0.00000604,-0.00004199,0.00001925,-0.00010882,-0.00000
 636,0.00000831,0.00016418,0.00002395,0.00000613,-0.00000984,-0.0000149
 1,-0.00000017,0.00000364,0.00000593,-0.00000061,-0.00000195,0.00000757
 ,-0.00000111,0.00001112,0.00000452,0.00000692,-0.00002667,0.00000323,-
 0.00000320,-0.00000293,-0.00000867,-0.00002664,-0.00000144,-0.00001225
 ,-0.00005751,0.00005071,-0.00002846,0.00000528,0.00000723,-0.00000215,
 -0.00000559,-0.00000319,0.00001551,0.00005303,-0.00000493,0.00002838,-
 0.00000413,0.00000844,0.00000462,-0.00039072,0.00129554,0.00035754,-0.
 00488348,-0.00312377,-0.00301952,-0.11855822,-0.06343668,-0.13346904,-
 0.00014360,-0.00110005,0.00113466,0.00063284,-0.00019227,0.00050332,0.
 01195204,0.00597708,0.01044755,0.12367204,0.05785936,0.14395554,-0.040
 55058,0.00769552,0.00405290,-0.00670337,0.00375665,-0.00215003,0.00051
 429,0.00032752,-0.00059126,0.00010087,0.00027310,0.00012472,0.00005420
 ,-0.00024150,-0.00005110,0.00021745,-0.00024362,0.00033844,-0.00016160
 ,-0.00009926,0.00010394,0.00028433,-0.00009040,-0.00023392,0.00057607,
 0.00116978,-0.00102946,-0.00000109,-0.00001339,0.00006149,0.00014365,-
 0.00007967,0.00022002,-0.00016256,0.00004976,0.00005471,0.00015107,0.0
 0012062,-0.00012141,-0.00015821,0.00002292,-0.00001685,0.00009054,-0.0
 0003047,0.00003416,-0.00039244,-0.00019510,-0.00018885,-0.00001423,0.0
 0012754,-0.00012950,0.00006052,0.00003280,-0.00007139,-0.00000248,0.00
 002475,0.00001255,0.00017329,0.00026234,0.00002025,-0.00016482,-0.0000
 5258,-0.00044904,0.00004379,-0.00005380,0.00000291,0.00003330,-0.00006
 056,0.00017310,-0.00000638,-0.00007794,-0.00011008,0.00002634,0.000040
 60,0.00003341,-0.00010012,0.00028066,0.00016293,0.00001127,-0.00020037
 ,-0.00003070,0.00003659,0.00022395,0.00009852,0.00000870,-0.00024515,-
 0.00021630,-0.00006170,-0.00022619,-0.00016429,0.00001363,0.00005706,-
 0.00001951,0.00050207,0.00023267,0.00082527,-0.00008348,-0.00004945,-0
 .00054469,-0.00057394,-0.00039135,-0.00050859,0.00025231,-0.00008887,0
 .00017061,0.00048585,0.00033150,0.00016730,-0.00039618,-0.00040385,-0.
 00005570,0.00124382,-0.00150306,0.00082519,-0.00052464,0.00617813,-0.0
 0489173,-0.00026417,-0.00057207,-0.00025745,-0.00006168,0.00050634,-0.
 00007301,0.00118789,0.00136097,0.00060374,-0.00020512,0.00060758,0.000
 32683,0.00018817,-0.00037755,-0.00026327,0.00007093,-0.00034444,-0.000
 03747,-0.00003081,-0.00001737,-0.00011215,0.00013401,0.00024275,0.0000
 0627,-0.00004801,-0.00017036,-0.00002772,-0.00006873,-0.00009122,0.000
 04828,-0.00001391,-0.00002364,-0.00005044,-0.00000472,-0.00001012,0.00
 002181,-0.00007471,0.00007627,0.00007727,0.00001650,0.00000940,0.00001
 018,-0.00001387,0.00002421,0.00004654,-0.00000426,0.00000240,0.0000362
 3,-0.00002056,-0.00002815,-0.00001366,0.00002527,-0.00001448,0.0000124
 6,0.00010783,0.00005890,0.00000949,0.00048938,0.00016954,-0.00028379,0
 .00024202,-0.00043866,0.00017130,-0.00008453,-0.00001146,-0.00001345,0
 .00023768,0.00023347,0.00020029,-0.00011767,-0.00040972,-0.00034911,-0
 .00004578,-0.00001182,-0.00022880,-0.00008578,-0.00000905,-0.00007751,
 0.00011785,0.00013054,0.00027476,-0.00001487,0.00001746,0.00001892,0.0
 0002746,0.00006152,0.00002044,-0.00005653,0.00004098,0.00001926,0.0000
 0480,0.00002472,-0.00002240,-0.00893116,-0.00498713,0.00802902,0.00029
 324,0.00059559,0.00051589,-0.00005900,0.00021029,-0.00004248,-0.000073
 84,0.00011850,0.00010541,0.00004357,0.00022977,0.00014698,-0.00000361,
 -0.00096762,-0.00054943,0.00004739,-0.00019767,0.00015916,0.00005425,-
 0.00012830,-0.00012513,-0.00001512,-0.00010250,-0.00004335,-0.00012107
 ,-0.00045501,-0.00022931,-0.00000905,0.00018597,0.00008998,0.00003521,
 0.00000929,-0.00008966,-0.00000415,0.00003476,0.00000344,0.00000468,0.
 00001202,-0.00001912,-0.00000291,0.00008615,-0.00000360,0.00002404,-0.
 00007842,0.00001271,0.00000838,-0.00002012,-0.00001522,-0.00008475,-0.
 00002848,-0.00003679,-0.00020348,-0.00004702,-0.00002233,-0.00001547,0
 .00002854,-0.00001870,-0.00000427,0.00000869,-0.00001174,0.00018140,0.
 00009852,0.00006702,-0.00004897,-0.00000429,0.00002713,0.00055615,0.00
 230486,-0.00179928,0.00004383,0.00137155,-0.00278036,-0.03991507,-0.00
 020559,0.00012651,0.00054983,0.00010968,0.00104185,0.00064199,0.000880
 12,0.00024264,0.00355238,-0.00952537,0.01286969,0.00319155,0.01088262,
 -0.01365092,0.08366384,0.01890370,-0.00780043,-0.00036470,0.00303863,-
 0.00357794,0.00394873,-0.00011341,-0.00017750,0.00000297,0.00001778,-0
 .00007668,0.00005569,0.00005036,0.00003205,0.00004608,0.00020459,0.000
 65911,-0.00009995,0.00003771,-0.00004613,-0.00023647,-0.00024951,-0.00
 035008,0.00021134,-0.00039960,-0.00072005,0.00053549,-0.00006680,-0.00
 000656,0.00000422,0.00002807,-0.00003452,-0.00007467,0.00010397,-0.000
 02090,-0.00030706,0.00004670,0.00014338,-0.00013597,-0.00031431,-0.000
 13488,0.00016577,0.00005970,-0.00012582,0.00010937,0.00036529,0.000071
 65,0.00015928,0.00003673,-0.00009895,0.00012147,-0.00002899,0.00002379
 ,-0.00001398,-0.00001027,-0.00000180,-0.00001735,0.00030329,0.00049916
 ,0.00071775,-0.00030160,-0.00094245,-0.00006335,-0.00007374,-0.0001107
 8,0.00008163,0.00003952,-0.00028491,0.00021984,-0.00000686,0.00001063,
 0.00000493,0.00000176,-0.00000338,-0.00000219,0.00005091,-0.00009902,-
 0.00002040,-0.00003830,0.00006863,-0.00002492,0.00000871,-0.00003845,0
 .00000385,-0.00002154,0.00005578,0.00001208,-0.00002560,0.00006003,0.0
 0003332,0.00001567,-0.00002496,0.00001048,-0.00004528,-0.00004159,-0.0
 0004718,0.00001419,0.00005138,0.00001196,0.00000111,0.00004287,0.00007
 535,-0.00003385,0.00000947,-0.00003123,-0.00008961,-0.00011672,-0.0001
 8921,0.00003712,0.00011378,0.00008953,-0.00079431,0.00215219,-0.001172
 11,-0.00333132,-0.00317722,0.00347594,-0.00004208,0.00026270,0.0000907
 4,-0.00000539,0.00009305,0.00046995,-0.00022547,-0.00047747,-0.0006770
 9,0.00035130,-0.00004035,-0.00027381,-0.00026936,0.00006087,0.00016173
 ,-0.00011354,0.00001233,0.00007539,0.00003904,-0.00001038,-0.00000713,
 0.00005385,0.00000019,-0.00002649,-0.00003158,0.00001048,0.00001328,-0
 .00004492,-0.00000479,0.00002038,0.00000294,0.00000177,0.00000391,0.00
 000863,0.00001138,-0.00000372,0.00000636,-0.00004086,-0.00000472,-0.00
 000840,-0.00000017,-0.00000301,0.00000864,-0.00000253,-0.00000675,-0.0
 0000062,-0.00000186,0.00000239,0.00000328,0.00000363,-0.00000346,0.000
 00074,0.00000482,0.00000099,-0.00000465,-0.00000398,0.00000035,-0.0005
 7962,-0.00039953,0.00044652,0.00012321,0.00011608,-0.00011773,0.000028
 55,-0.00000923,-0.00001167,-0.00002726,-0.00007419,-0.00001630,0.00009
 770,0.00050644,0.00000507,0.00013822,0.00007071,0.00009719,-0.00007680
 ,-0.00008110,-0.00003439,0.00000840,-0.00002136,-0.00003250,0.00000255
 ,-0.00000359,0.00000080,-0.00000712,-0.00001322,0.00000376,0.00003761,
 0.00001629,0.00000328,0.00001182,-0.00000323,0.00000102,0.00210192,0.0
 0309609,-0.00130505,0.00015019,-0.00054248,-0.00027188,0.00020281,-0.0
 0002833,0.00005226,0.00017745,-0.00006729,-0.00008786,0.00008367,-0.00
 018273,-0.00014445,-0.00061298,0.00058774,-0.00003105,-0.00012488,0.00
 012486,-0.00008426,-0.00013423,0.00009003,0.00008049,-0.00006598,0.000
 04531,0.00008044,0.00009879,0.00044495,0.00030925,0.00001605,0.0001971
 0,0.00000472,0.00002685,-0.00003463,0.00000265,0.00000606,-0.00000126,
 -0.00000723,0.00000283,0.00000059,-0.00000158,0.00001068,-0.00009118,-
 0.00001225,-0.00003305,-0.00000352,-0.00001255,-0.00003799,0.00001341,
 0.00001391,-0.00000357,0.00004128,0.00005240,0.00007297,0.00016853,0.0
 0010338,0.00005037,0.00001680,-0.00000503,-0.00001751,0.00000405,0.000
 03553,-0.00005842,-0.00019760,-0.00014247,0.00002121,0.00001825,0.0000
 1867,0.00036523,0.00038325,0.00104440,-0.00131438,-0.01825974,0.028066
 18,0.00163678,-0.05615506,0.04153663,0.00048740,0.00240889,0.00015369,
 0.00196982,-0.00499603,-0.00084642,-0.00460657,-0.00264565,0.00670877,
 0.00093949,0.00046719,0.00340913,-0.01831760,0.08913210,-0.00850637,0.
 00361459,-0.00655655,-0.00064391,0.00383949,-0.00148075,0.00003036,0.0
 0021049,-0.00044060,0.00005070,0.00025252,0.00013059,-0.00002491,0.000
 04331,-0.00001393,0.00007250,0.00029641,-0.00001691,-0.00034027,0.0000
 6479,0.00003984,-0.00030385,-0.00024749,0.00008769,0.00012890,0.000144
 86,-0.00000536,0.00003456,0.00000073,-0.00007210,-0.00010342,0.0000833
 1,-0.00001323,0.00012810,0.00011460,-0.00015183,-0.00007127,-0.0000666
 8,0.00001563,-0.00010151,0.00006200,0.00004794,-0.00003601,0.00000663,
 0.00007728,-0.00014957,-0.00001771,-0.00014019,-0.00004837,0.00004281,
 -0.00006746,-0.00001681,-0.00004188,0.00006148,0.00001254,-0.00000301,
 0.00002883,-0.00023326,-0.00005313,-0.00047437,0.00004659,0.00036127,-
 0.00105106,0.00003364,0.00003480,0.00004316,-0.00006647,0.00010271,-0.
 00014509,-0.00001309,0.00001240,0.00002680,0.00000037,-0.00000929,-0.0
 0000497,0.00006109,-0.00010763,-0.00006780,-0.00003421,0.00006341,0.00
 000803,0.00002157,-0.00001962,-0.00001611,-0.00007623,0.00004133,0.000
 06100,-0.00001589,0.00007749,0.00006133,0.00001540,-0.00003666,0.00002
 879,-0.00015611,-0.00006693,-0.00038372,-0.00000617,0.00001209,0.00024
 387,0.00031713,0.00031564,0.00013818,0.00012065,-0.00009010,0.00007618
 ,0.00018133,-0.00020978,-0.00007617,-0.00002951,0.00009057,0.00005073,
 0.00003754,-0.00197924,0.00112581,0.00498123,0.00183594,-0.00077890,-0
 .00018721,0.00011765,0.00001187,0.00014831,-0.00003643,0.00025900,0.00
 030421,0.00014654,0.00032544,0.00014835,0.00007882,-0.00022755,-0.0001
 4334,-0.00002967,0.00016181,-0.00005063,-0.00006795,0.00007848,0.00002
 102,0.00000333,-0.00003501,0.00001473,-0.00002129,-0.00002436,-0.00000
 954,0.00001740,0.00002112,-0.00001681,0.00000007,0.00001604,0.00000297
 ,0.00000578,0.00001528,0.00000512,0.00000827,-0.00000503,0.00006486,-0
 .00003980,-0.00004577,-0.00000778,-0.00000394,-0.00000542,0.00000841,-
 0.00000279,-0.00001284,-0.00000140,-0.00000250,-0.00000603,0.00001237,
 0.00001738,0.00000092,-0.00001164,0.00000350,-0.00000084,-0.00001396,-
 0.00001162,-0.00000124,0.00048124,0.00036997,-0.00034600,-0.00021153,0
 .00011873,-0.00000894,-0.00000789,0.00005186,0.00002695,-0.00015546,-0
 .00020070,-0.00017156,0.00010721,-0.00016523,-0.00003266,0.00003054,-0
 .00005645,0.00003111,-0.00003661,-0.00002323,-0.00001234,0.00002171,-0
 .00004001,-0.00005102,-0.00000560,-0.00000369,0.00001110,-0.00000326,-
 0.00000880,0.00000189,0.00000814,0.00000849,-0.00000543,-0.00000046,-0
 .00000247,-0.00000202,-0.00274536,-0.00060453,-0.00031830,0.00001703,-
 0.00003943,0.00032369,0.00006624,-0.00002572,0.00010177,0.00002842,-0.
 00001177,0.00003633,0.00002063,-0.00006430,0.00000906,-0.00008247,-0.0
 0036140,-0.00037353,-0.00006605,0.00006265,-0.00004838,-0.00003315,0.0
 0000428,-0.00002068,-0.00001088,0.00007390,-0.00002109,0.00002004,0.00
 008936,0.00002219,0.00003454,-0.00013107,0.00001733,-0.00004393,-0.000
 00156,0.00004031,0.00000457,-0.00001979,0.00001171,-0.00001153,-0.0000
 1532,0.00003213,0.00000654,-0.00005236,0.00002171,-0.00000752,0.000011
 37,-0.00001364,-0.00001619,0.00001356,-0.00001125,-0.00000964,0.000024
 24,-0.00000267,0.00002671,0.00016074,-0.00004812,0.00001657,0.00001009
 ,-0.00000239,-0.00002377,-0.00001388,0.00006606,-0.00001232,-0.0001229
 9,-0.00000122,0.00002236,0.00002993,-0.00000548,0.00005767,-0.00077463
 ,0.00108374,0.00004190,0.01008736,-0.00586568,0.00035140,0.04442126,-0
 .09888004,0.00073339,-0.00044070,0.00056384,-0.00002890,0.00022350,0.0
 0142853,0.00353350,0.01144798,-0.01992628,0.00229905,0.01320771,-0.018
 96048,-0.00000188,-0.08619473,0.15037784\\-0.00000136,-0.00000142,-0.0
 0000217,0.00000057,0.00000148,0.00000162,-0.00000013,-0.00000066,-0.00
 000068,0.00000031,0.00000035,0.00000038,0.00000024,0.00000006,0.000000
 19,0.00000109,-0.00000058,-0.00000093,0.00000015,-0.00000016,-0.000000
 23,-0.00000014,-0.00000039,-0.00000062,-0.00000031,0.00000066,-0.00000
 112,0.00000012,-0.00000014,0.00000044,-0.00000012,0.00000005,0.0000000
 8,0.00000041,-0.00000004,-0.00000019,0.00000099,-0.00000020,-0.0000005
 6,0.00000034,-0.00000011,-0.00000027,0.00000073,-0.00000012,-0.0000002
 9,-0.00000004,-0.00000010,0.00000081,-0.00000037,0.00000022,0.00000029
 ,-0.00000009,0.00000012,0.00000038,-0.00000024,-0.00000021,-0.00000024
 ,-0.00000117,0.00000005,-0.00000034,0.,-0.00000030,0.00000057,-0.00000
 043,-0.00000008,-0.00000083,-0.00000051,-0.00000026,-0.00000041,-0.000
 00088,0.00000025,0.00000087,-0.00000006,0.00000030,0.00000061,-0.00000
 024,0.00000054,0.00000115,-0.00000055,0.00000034,0.00000046,-0.0000008
 4,-0.00000018,0.00000063,-0.00000003,0.00000088,0.00000004,0.00000002,
 0.00000008,0.00000093,0.00000010,0.00000049,0.00000110,-0.00000025,-0.
 00000025,0.00000116,-0.00000028,0.00000027,0.00000091,-0.00000054,0.00
 000109,0.00000055,0.00000053,0.00000078,0.00000111,0.00000016,0.000000
 25,0.00000073,0.00000025,0.00000021,0.00000074,0.00000167,0.00000163,0
 .00000146,0.00000051,-0.00000142,0.,-0.00000019,-0.00000017,0.00000046
 ,0.00000020,0.00000042,0.00000041,-0.00000027,-0.00000050,-0.00000025,
 0.00000042,-0.00000023,0.00000012,0.,0.00000005,0.00000010,0.,-0.00000
 023,0.00000008,0.00000022,0.00000024,0.00000078,0.00000013,-0.00000012
 ,0.00000055,0.00000009,0.00000019,0.00000034,0.00000036,0.00000024,0.0
 0000073,-0.00000071,0.00000024,0.00000060,-0.00000053,0.00000019,0.000
 00058,-0.00000071,0.00000016,0.00000074,-0.00000056,0.00000043,0.00000
 121,-0.00000037,0.00000039,0.00000083,-0.00000068,0.00000036,0.0000010
 7,-0.00000021,0.00000014,0.00000118,0.00000018,0.00000038,0.00000118,0
 .00000019,0.00000030,0.00000096,0.00000068,0.00000021,0.00000080,0.000
 00088,0.00000016,0.00000077,0.00000052,-0.00000010,0.00000082,0.000000
 32,0.00000062,0.00000074,0.00000068,-0.00000014,-0.00000017,-0.0000006
 6,0.00000011,0.00000031,0.00000074,0.00000006,0.00000023,0.00000040,-0
 .00000118,0.00000050,0.00000044,0.00000013,0.00000034,0.00000058,0.000
 00006,0.00000044,-0.00000032,0.,0.00000039,0.00000014,0.00000024,0.000
 00080,0.00000030,0.00000071,0.00000119,-0.00000010,0.00000006,-0.00000
 063,0.00000016,-0.00000042,-0.00000135,-0.00000034,-0.00000035,-0.0000
 0151,-0.00000012,-0.00000017,-0.00000107,0.00000006,-0.00000067,-0.000
 00078,0.00000026,-0.00000015,-0.00000087,-0.00000012,-0.00000106,-0.00
 000123,-0.00000061,0.00000042,-0.00000139,-0.00000084,0.00000007,-0.00
 000049,0.00000023,-0.00000031,-0.00000080,-0.00000012,-0.00000051,-0.0
 0000140,-0.00000012,-0.00000040,-0.00000150,-0.00000060,-0.00000010,-0
 .00000088,0.00000016,-0.00000019,-0.00000076,0.00000013,-0.00000032,-0
 .00000156,-0.00000038,-0.00000038,-0.00000147,-0.00000068,-0.00000024,
 -0.00000081,-0.00000015,-0.00000032,-0.00000077,-0.00000047,0.00000013
 ,-0.00000020,-0.00000056,-0.00000013,-0.00000074,-0.00000083,-0.000000
 18,-0.00000042,-0.00000061,-0.00000002,-0.00000055,-0.00000012,0.00000
 002,-0.00000160,0.00000029,-0.00000027,-0.00000017,0.00000096,-0.00000
 064,-0.00000074,0.00000110,0.00000033,-0.00000016,0.00000052,-0.000000
 38,-0.00000071,0.00000032,-0.00000026,-0.00000113,0.00000071,-0.000000
 30,-0.00000072,0.00000003,-0.00000005,-0.00000073\\\@


 IT MATTERS NOT HOW DEEP YOU PLOW,
 BUT HOW LONG YOU STAY IN THE FURROW.
 Job cpu time:       1 days 14 hours 16 minutes 39.9 seconds.
 File lengths (MBytes):  RWF=   8994 Int=      0 D2E=      0 Chk=     63 Scr=      1
 Normal termination of Gaussian 09 at Sun Apr 16 17:35:32 2023.
