 Entering Gaussian System, Link 0=g09
 Input=AF13-helio.com
 Output=AF13-helio.log
 Initial command:
 /home/scr/programs/g09/l1.exe "/home/scr/helius/Gau-27219.inp" -scrdir="/home/scr/helius/"
 Entering Link 1 = /home/scr/programs/g09/l1.exe PID=     27221.
  
 Copyright (c) 1988,1990,1992,1993,1995,1998,2003,2009,2013,
            Gaussian, Inc.  All Rights Reserved.
  
 This is part of the Gaussian(R) 09 program.  It is based on
 the Gaussian(R) 03 system (copyright 2003, Gaussian, Inc.),
 the Gaussian(R) 98 system (copyright 1998, Gaussian, Inc.),
 the Gaussian(R) 94 system (copyright 1995, Gaussian, Inc.),
 the Gaussian 92(TM) system (copyright 1992, Gaussian, Inc.),
 the Gaussian 90(TM) system (copyright 1990, Gaussian, Inc.),
 the Gaussian 88(TM) system (copyright 1988, Gaussian, Inc.),
 the Gaussian 86(TM) system (copyright 1986, Carnegie Mellon
 University), and the Gaussian 82(TM) system (copyright 1983,
 Carnegie Mellon University). Gaussian is a federally registered
 trademark of Gaussian, Inc.
  
 This software contains proprietary and confidential information,
 including trade secrets, belonging to Gaussian, Inc.
  
 This software is provided under written license and may be
 used, copied, transmitted, or stored only in accord with that
 written license.
  
 The following legend is applicable only to US Government
 contracts under FAR:
  
                    RESTRICTED RIGHTS LEGEND
  
 Use, reproduction and disclosure by the US Government is
 subject to restrictions as set forth in subparagraphs (a)
 and (c) of the Commercial Computer Software - Restricted
 Rights clause in FAR 52.227-19.
  
 Gaussian, Inc.
 340 Quinnipiac St., Bldg. 40, Wallingford CT 06492
  
  
 ---------------------------------------------------------------
 Warning -- This program may not be used in any manner that
 competes with the business of Gaussian, Inc. or will provide
 assistance to any competitor of Gaussian, Inc.  The licensee
 of this program is prohibited from giving any competitor of
 Gaussian, Inc. access to this program.  By using this program,
 the user acknowledges that Gaussian, Inc. is engaged in the
 business of creating and licensing software in the field of
 computational chemistry and represents and warrants to the
 licensee that it is not a competitor of Gaussian, Inc. and that
 it will not use this program in any manner prohibited above.
 ---------------------------------------------------------------
  

 Cite this work as:
 Gaussian 09, Revision D.01,
 M. J. Frisch, G. W. Trucks, H. B. Schlegel, G. E. Scuseria, 
 M. A. Robb, J. R. Cheeseman, G. Scalmani, V. Barone, B. Mennucci, 
 G. A. Petersson, H. Nakatsuji, M. Caricato, X. Li, H. P. Hratchian, 
 A. F. Izmaylov, J. Bloino, G. Zheng, J. L. Sonnenberg, M. Hada, 
 M. Ehara, K. Toyota, R. Fukuda, J. Hasegawa, M. Ishida, T. Nakajima, 
 Y. Honda, O. Kitao, H. Nakai, T. Vreven, J. A. Montgomery, Jr., 
 J. E. Peralta, F. Ogliaro, M. Bearpark, J. J. Heyd, E. Brothers, 
 K. N. Kudin, V. N. Staroverov, T. Keith, R. Kobayashi, J. Normand, 
 K. Raghavachari, A. Rendell, J. C. Burant, S. S. Iyengar, J. Tomasi, 
 M. Cossi, N. Rega, J. M. Millam, M. Klene, J. E. Knox, J. B. Cross, 
 V. Bakken, C. Adamo, J. Jaramillo, R. Gomperts, R. E. Stratmann, 
 O. Yazyev, A. J. Austin, R. Cammi, C. Pomelli, J. W. Ochterski, 
 R. L. Martin, K. Morokuma, V. G. Zakrzewski, G. A. Voth, 
 P. Salvador, J. J. Dannenberg, S. Dapprich, A. D. Daniels, 
 O. Farkas, J. B. Foresman, J. V. Ortiz, J. Cioslowski, 
 and D. J. Fox, Gaussian, Inc., Wallingford CT, 2013.
 
 ******************************************
 Gaussian 09:  EM64L-G09RevD.01 24-Apr-2013
                17-Apr-2023 
 ******************************************
 %mem=30000MB
 %nprocshared=8
 Will use up to    8 processors via shared memory.
 ----------------------------------------
 # opt freq=noraman b3lyp/gen pseudo=read
 ----------------------------------------
 1/14=-1,18=20,19=15,26=3,38=1/1,3;
 2/9=110,12=2,17=6,18=5,40=1/2;
 3/5=7,11=2,16=1,17=8,25=1,30=1,71=1,74=-5/1,2,3;
 4//1;
 5/5=2,38=5/2;
 6/7=2,8=2,9=2,10=2,28=1/1;
 7//1,2,3,16;
 1/14=-1,18=20,19=15,26=3/3(2);
 2/9=110/2;
 99//99;
 2/9=110/2;
 3/5=7,6=1,11=2,16=1,17=8,25=1,30=1,71=1,74=-5,82=7/1,2,3;
 4/5=5,16=3,69=1/1;
 5/5=2,38=5/2;
 7//1,2,3,16;
 1/14=-1,18=20,19=15,26=3/3(-5);
 2/9=110/2;
 6/7=2,8=2,9=2,10=2,19=2,28=1/1;
 99/9=1/99;
 -------------------
 Title Card Required
 -------------------
 Symbolic Z-matrix:
 Charge =  0 Multiplicity = 1
 O                     4.40334  -0.66965  -0.50227 
 O                     4.50356   2.86093   0.3015 
 O                     6.87999   1.91187   1.46975 
 O                     7.97923  -0.39231   0.21591 
 C                     4.07395   0.6987   -0.61895 
 C                     4.78509   1.49167   0.4704 
 C                     6.28013   1.23119   0.38838 
 C                     6.58411  -0.25607   0.40325 
 C                     5.77775  -0.9363   -0.70896 
 H                     4.39003   1.06289  -1.61646 
 H                     4.40897   1.13358   1.4419 
 H                     6.65157   1.64665  -0.56421 
 H                     6.28018  -0.67709   1.36983 
 H                     6.09917  -0.52381  -1.68101 
 H                     5.10671   3.34679   0.87358 
 H                     7.82828   1.75493   1.42162 
 H                     8.27224  -1.21011   0.62492 
 C                     5.98138  -2.4341   -0.77273 
 H                     7.00649  -2.62902  -1.11715 
 H                     5.28723  -2.84658  -1.51747 
 O                     5.75795  -2.99955   0.50338 
 H                     5.87696  -3.94971   0.43934 
 O                     2.7152    0.83592  -0.45866 
 C                     1.95044   0.41626  -1.57824 
 C                     0.47898   0.61143  -1.28765 
 H                     2.16063  -0.637    -1.8046 
 H                     2.23186   1.02353  -2.45331 
 H                    -0.07328   0.42091  -2.21141 
 H                     0.29836   1.64942  -0.99274 
 S                    -0.10735  -0.52416   0.02526 
 Au                   -2.42097  -0.24862   0.04623 
 P                    -4.70921  -0.03731   0.10609 
 C                    -5.54195  -1.40962   0.98652 
 C                    -4.97662  -1.67793   2.37869 
 H                    -5.42586  -2.2934    0.34874 
 H                    -6.6131   -1.18376   1.03812 
 H                    -5.4874   -2.53263   2.83292 
 H                    -3.90675  -1.9055    2.33235 
 H                    -5.11156  -0.82058   3.04527 
 C                    -5.29068   1.48245   0.94315 
 C                    -4.75448   2.76683   0.31797 
 H                    -4.96232   1.40009   1.98494 
 H                    -6.38698   1.47194   0.95138 
 H                    -5.08923   3.63489   0.89399 
 H                    -3.65954   2.77072   0.30367 
 H                    -5.1064    2.89615  -0.7105 
 C                    -5.4415   -0.01751  -1.57358 
 C                    -6.95456   0.16134  -1.6599 
 H                    -5.131    -0.96128  -2.03663 
 H                    -4.92212   0.77483  -2.12408 
 H                    -7.2677    0.14822  -2.70867 
 H                    -7.49126  -0.64117  -1.14555 
 H                    -7.27809   1.11544  -1.23305 
 

 GradGradGradGradGradGradGradGradGradGradGradGradGradGradGradGradGradGrad
 Berny optimization.
 Initialization pass.
                           ----------------------------
                           !    Initial Parameters    !
                           ! (Angstroms and Degrees)  !
 --------------------------                            --------------------------
 ! Name  Definition              Value          Derivative Info.                !
 --------------------------------------------------------------------------------
 ! R1    R(1,5)                  1.4123         estimate D2E/DX2                !
 ! R2    R(1,9)                  1.4152         estimate D2E/DX2                !
 ! R3    R(2,6)                  1.4081         estimate D2E/DX2                !
 ! R4    R(2,15)                 0.9629         estimate D2E/DX2                !
 ! R5    R(3,7)                  1.4116         estimate D2E/DX2                !
 ! R6    R(3,16)                 0.9624         estimate D2E/DX2                !
 ! R7    R(4,8)                  1.4142         estimate D2E/DX2                !
 ! R8    R(4,17)                 0.9602         estimate D2E/DX2                !
 ! R9    R(5,6)                  1.5235         estimate D2E/DX2                !
 ! R10   R(5,10)                 1.108          estimate D2E/DX2                !
 ! R11   R(5,23)                 1.375          estimate D2E/DX2                !
 ! R12   R(6,7)                  1.5198         estimate D2E/DX2                !
 ! R13   R(6,11)                 1.1016         estimate D2E/DX2                !
 ! R14   R(7,8)                  1.5181         estimate D2E/DX2                !
 ! R15   R(7,12)                 1.1036         estimate D2E/DX2                !
 ! R16   R(8,9)                  1.533          estimate D2E/DX2                !
 ! R17   R(8,13)                 1.0972         estimate D2E/DX2                !
 ! R18   R(9,14)                 1.1038         estimate D2E/DX2                !
 ! R19   R(9,18)                 1.5129         estimate D2E/DX2                !
 ! R20   R(18,19)                1.0989         estimate D2E/DX2                !
 ! R21   R(18,20)                1.0985         estimate D2E/DX2                !
 ! R22   R(18,21)                1.4135         estimate D2E/DX2                !
 ! R23   R(21,22)                0.9597         estimate D2E/DX2                !
 ! R24   R(23,24)                1.4193         estimate D2E/DX2                !
 ! R25   R(24,25)                1.5125         estimate D2E/DX2                !
 ! R26   R(24,26)                1.0976         estimate D2E/DX2                !
 ! R27   R(24,27)                1.1017         estimate D2E/DX2                !
 ! R28   R(25,28)                1.093          estimate D2E/DX2                !
 ! R29   R(25,29)                1.0941         estimate D2E/DX2                !
 ! R30   R(25,30)                1.8322         estimate D2E/DX2                !
 ! R31   R(30,31)                2.3301         estimate D2E/DX2                !
 ! R32   R(31,32)                2.2988         estimate D2E/DX2                !
 ! R33   R(32,33)                1.8308         estimate D2E/DX2                !
 ! R34   R(32,40)                1.8299         estimate D2E/DX2                !
 ! R35   R(32,47)                1.8325         estimate D2E/DX2                !
 ! R36   R(33,34)                1.5263         estimate D2E/DX2                !
 ! R37   R(33,35)                1.096          estimate D2E/DX2                !
 ! R38   R(33,36)                1.0959         estimate D2E/DX2                !
 ! R39   R(34,37)                1.0944         estimate D2E/DX2                !
 ! R40   R(34,38)                1.0948         estimate D2E/DX2                !
 ! R41   R(34,39)                1.0943         estimate D2E/DX2                !
 ! R42   R(40,41)                1.5258         estimate D2E/DX2                !
 ! R43   R(40,42)                1.0954         estimate D2E/DX2                !
 ! R44   R(40,43)                1.0964         estimate D2E/DX2                !
 ! R45   R(41,44)                1.0942         estimate D2E/DX2                !
 ! R46   R(41,45)                1.095          estimate D2E/DX2                !
 ! R47   R(41,46)                1.0947         estimate D2E/DX2                !
 ! R48   R(47,48)                1.526          estimate D2E/DX2                !
 ! R49   R(47,49)                1.0961         estimate D2E/DX2                !
 ! R50   R(47,50)                1.0957         estimate D2E/DX2                !
 ! R51   R(48,51)                1.0946         estimate D2E/DX2                !
 ! R52   R(48,52)                1.0939         estimate D2E/DX2                !
 ! R53   R(48,53)                1.0942         estimate D2E/DX2                !
 ! A1    A(5,1,9)              113.3911         estimate D2E/DX2                !
 ! A2    A(6,2,15)             107.1081         estimate D2E/DX2                !
 ! A3    A(7,3,16)             107.5642         estimate D2E/DX2                !
 ! A4    A(8,4,17)             109.0665         estimate D2E/DX2                !
 ! A5    A(1,5,6)              109.6549         estimate D2E/DX2                !
 ! A6    A(1,5,10)             109.046          estimate D2E/DX2                !
 ! A7    A(1,5,23)             108.5137         estimate D2E/DX2                !
 ! A8    A(6,5,10)             109.8457         estimate D2E/DX2                !
 ! A9    A(6,5,23)             109.0233         estimate D2E/DX2                !
 ! A10   A(10,5,23)            110.7351         estimate D2E/DX2                !
 ! A11   A(2,6,5)              109.0892         estimate D2E/DX2                !
 ! A12   A(2,6,7)              110.9092         estimate D2E/DX2                !
 ! A13   A(2,6,11)             110.709          estimate D2E/DX2                !
 ! A14   A(5,6,7)              109.3525         estimate D2E/DX2                !
 ! A15   A(5,6,11)             107.5782         estimate D2E/DX2                !
 ! A16   A(7,6,11)             109.1324         estimate D2E/DX2                !
 ! A17   A(3,7,6)              107.1007         estimate D2E/DX2                !
 ! A18   A(3,7,8)              112.3235         estimate D2E/DX2                !
 ! A19   A(3,7,12)             109.6748         estimate D2E/DX2                !
 ! A20   A(6,7,8)              111.3686         estimate D2E/DX2                !
 ! A21   A(6,7,12)             108.2482         estimate D2E/DX2                !
 ! A22   A(8,7,12)             108.0512         estimate D2E/DX2                !
 ! A23   A(4,8,7)              106.8948         estimate D2E/DX2                !
 ! A24   A(4,8,9)              112.3372         estimate D2E/DX2                !
 ! A25   A(4,8,13)             110.6702         estimate D2E/DX2                !
 ! A26   A(7,8,9)              108.8018         estimate D2E/DX2                !
 ! A27   A(7,8,13)             109.213          estimate D2E/DX2                !
 ! A28   A(9,8,13)             108.855          estimate D2E/DX2                !
 ! A29   A(1,9,8)              108.7401         estimate D2E/DX2                !
 ! A30   A(1,9,14)             109.9387         estimate D2E/DX2                !
 ! A31   A(1,9,18)             108.8691         estimate D2E/DX2                !
 ! A32   A(8,9,14)             108.6588         estimate D2E/DX2                !
 ! A33   A(8,9,18)             113.5208         estimate D2E/DX2                !
 ! A34   A(14,9,18)            107.0775         estimate D2E/DX2                !
 ! A35   A(9,18,19)            108.3233         estimate D2E/DX2                !
 ! A36   A(9,18,20)            108.3772         estimate D2E/DX2                !
 ! A37   A(9,18,21)            109.6761         estimate D2E/DX2                !
 ! A38   A(19,18,20)           108.0839         estimate D2E/DX2                !
 ! A39   A(19,18,21)           111.0672         estimate D2E/DX2                !
 ! A40   A(20,18,21)           111.2214         estimate D2E/DX2                !
 ! A41   A(18,21,22)           108.4335         estimate D2E/DX2                !
 ! A42   A(5,23,24)            114.2667         estimate D2E/DX2                !
 ! A43   A(23,24,25)           109.5417         estimate D2E/DX2                !
 ! A44   A(23,24,26)           110.0728         estimate D2E/DX2                !
 ! A45   A(23,24,27)           109.0226         estimate D2E/DX2                !
 ! A46   A(25,24,26)           110.471          estimate D2E/DX2                !
 ! A47   A(25,24,27)           109.2681         estimate D2E/DX2                !
 ! A48   A(26,24,27)           108.4346         estimate D2E/DX2                !
 ! A49   A(24,25,28)           107.8597         estimate D2E/DX2                !
 ! A50   A(24,25,29)           109.5605         estimate D2E/DX2                !
 ! A51   A(24,25,30)           111.6548         estimate D2E/DX2                !
 ! A52   A(28,25,29)           108.046          estimate D2E/DX2                !
 ! A53   A(28,25,30)           109.627          estimate D2E/DX2                !
 ! A54   A(29,25,30)           110.0006         estimate D2E/DX2                !
 ! A55   A(25,30,31)           104.5308         estimate D2E/DX2                !
 ! A56   A(31,32,33)           113.3528         estimate D2E/DX2                !
 ! A57   A(31,32,40)           113.864          estimate D2E/DX2                !
 ! A58   A(31,32,47)           112.0189         estimate D2E/DX2                !
 ! A59   A(33,32,40)           104.9523         estimate D2E/DX2                !
 ! A60   A(33,32,47)           105.4939         estimate D2E/DX2                !
 ! A61   A(40,32,47)           106.4596         estimate D2E/DX2                !
 ! A62   A(32,33,34)           113.6984         estimate D2E/DX2                !
 ! A63   A(32,33,35)           106.0455         estimate D2E/DX2                !
 ! A64   A(32,33,36)           108.2239         estimate D2E/DX2                !
 ! A65   A(34,33,35)           110.4729         estimate D2E/DX2                !
 ! A66   A(34,33,36)           110.8115         estimate D2E/DX2                !
 ! A67   A(35,33,36)           107.2835         estimate D2E/DX2                !
 ! A68   A(33,34,37)           110.0587         estimate D2E/DX2                !
 ! A69   A(33,34,38)           111.0929         estimate D2E/DX2                !
 ! A70   A(33,34,39)           111.8501         estimate D2E/DX2                !
 ! A71   A(37,34,38)           108.1396         estimate D2E/DX2                !
 ! A72   A(37,34,39)           107.547          estimate D2E/DX2                !
 ! A73   A(38,34,39)           108.0065         estimate D2E/DX2                !
 ! A74   A(32,40,41)           113.5792         estimate D2E/DX2                !
 ! A75   A(32,40,42)           106.1024         estimate D2E/DX2                !
 ! A76   A(32,40,43)           108.2529         estimate D2E/DX2                !
 ! A77   A(41,40,42)           110.3422         estimate D2E/DX2                !
 ! A78   A(41,40,43)           111.2569         estimate D2E/DX2                !
 ! A79   A(42,40,43)           106.9707         estimate D2E/DX2                !
 ! A80   A(40,41,44)           110.1562         estimate D2E/DX2                !
 ! A81   A(40,41,45)           111.084          estimate D2E/DX2                !
 ! A82   A(40,41,46)           111.8037         estimate D2E/DX2                !
 ! A83   A(44,41,45)           108.0559         estimate D2E/DX2                !
 ! A84   A(44,41,46)           107.6079         estimate D2E/DX2                !
 ! A85   A(45,41,46)           107.9853         estimate D2E/DX2                !
 ! A86   A(32,47,48)           116.7008         estimate D2E/DX2                !
 ! A87   A(32,47,49)           105.3498         estimate D2E/DX2                !
 ! A88   A(32,47,50)           106.1954         estimate D2E/DX2                !
 ! A89   A(48,47,49)           110.9692         estimate D2E/DX2                !
 ! A90   A(48,47,50)           110.9043         estimate D2E/DX2                !
 ! A91   A(49,47,50)           106.0274         estimate D2E/DX2                !
 ! A92   A(47,48,51)           109.6599         estimate D2E/DX2                !
 ! A93   A(47,48,52)           111.9555         estimate D2E/DX2                !
 ! A94   A(47,48,53)           111.9197         estimate D2E/DX2                !
 ! A95   A(51,48,52)           107.5389         estimate D2E/DX2                !
 ! A96   A(51,48,53)           107.4361         estimate D2E/DX2                !
 ! A97   A(52,48,53)           108.1321         estimate D2E/DX2                !
 ! A98   L(30,31,32,38,-1)     178.2915         estimate D2E/DX2                !
 ! A99   L(30,31,32,38,-2)     180.6354         estimate D2E/DX2                !
 ! D1    D(9,1,5,6)            -63.5977         estimate D2E/DX2                !
 ! D2    D(9,1,5,10)            56.7119         estimate D2E/DX2                !
 ! D3    D(9,1,5,23)           177.4154         estimate D2E/DX2                !
 ! D4    D(5,1,9,8)             64.4505         estimate D2E/DX2                !
 ! D5    D(5,1,9,14)           -54.3953         estimate D2E/DX2                !
 ! D6    D(5,1,9,18)          -171.4031         estimate D2E/DX2                !
 ! D7    D(15,2,6,5)          -168.0499         estimate D2E/DX2                !
 ! D8    D(15,2,6,7)           -47.546          estimate D2E/DX2                !
 ! D9    D(15,2,6,11)           73.7543         estimate D2E/DX2                !
 ! D10   D(16,3,7,6)          -179.7189         estimate D2E/DX2                !
 ! D11   D(16,3,7,8)            57.7042         estimate D2E/DX2                !
 ! D12   D(16,3,7,12)          -62.4651         estimate D2E/DX2                !
 ! D13   D(17,4,8,7)           152.8589         estimate D2E/DX2                !
 ! D14   D(17,4,8,9)           -87.8691         estimate D2E/DX2                !
 ! D15   D(17,4,8,13)           34.0314         estimate D2E/DX2                !
 ! D16   D(1,5,6,2)            177.0138         estimate D2E/DX2                !
 ! D17   D(1,5,6,7)             55.5594         estimate D2E/DX2                !
 ! D18   D(1,5,6,11)           -62.8431         estimate D2E/DX2                !
 ! D19   D(10,5,6,2)            57.1919         estimate D2E/DX2                !
 ! D20   D(10,5,6,7)           -64.2624         estimate D2E/DX2                !
 ! D21   D(10,5,6,11)          177.3351         estimate D2E/DX2                !
 ! D22   D(23,5,6,2)           -64.314          estimate D2E/DX2                !
 ! D23   D(23,5,6,7)           174.2317         estimate D2E/DX2                !
 ! D24   D(23,5,6,11)           55.8292         estimate D2E/DX2                !
 ! D25   D(1,5,23,24)          -74.8354         estimate D2E/DX2                !
 ! D26   D(6,5,23,24)          165.7808         estimate D2E/DX2                !
 ! D27   D(10,5,23,24)          44.8171         estimate D2E/DX2                !
 ! D28   D(2,6,7,3)             63.5985         estimate D2E/DX2                !
 ! D29   D(2,6,7,8)           -173.2323         estimate D2E/DX2                !
 ! D30   D(2,6,7,12)           -54.5882         estimate D2E/DX2                !
 ! D31   D(5,6,7,3)           -176.054          estimate D2E/DX2                !
 ! D32   D(5,6,7,8)            -52.8847         estimate D2E/DX2                !
 ! D33   D(5,6,7,12)            65.7593         estimate D2E/DX2                !
 ! D34   D(11,6,7,3)           -58.6248         estimate D2E/DX2                !
 ! D35   D(11,6,7,8)            64.5445         estimate D2E/DX2                !
 ! D36   D(11,6,7,12)         -176.8115         estimate D2E/DX2                !
 ! D37   D(3,7,8,4)            -64.4561         estimate D2E/DX2                !
 ! D38   D(3,7,8,9)            174.0104         estimate D2E/DX2                !
 ! D39   D(3,7,8,13)            55.3136         estimate D2E/DX2                !
 ! D40   D(6,7,8,4)            175.4117         estimate D2E/DX2                !
 ! D41   D(6,7,8,9)             53.8783         estimate D2E/DX2                !
 ! D42   D(6,7,8,13)           -64.8186         estimate D2E/DX2                !
 ! D43   D(12,7,8,4)            56.6497         estimate D2E/DX2                !
 ! D44   D(12,7,8,9)           -64.8837         estimate D2E/DX2                !
 ! D45   D(12,7,8,13)          176.4194         estimate D2E/DX2                !
 ! D46   D(4,8,9,1)           -175.6878         estimate D2E/DX2                !
 ! D47   D(4,8,9,14)           -56.0416         estimate D2E/DX2                !
 ! D48   D(4,8,9,18)            62.972          estimate D2E/DX2                !
 ! D49   D(7,8,9,1)            -57.5369         estimate D2E/DX2                !
 ! D50   D(7,8,9,14)            62.1093         estimate D2E/DX2                !
 ! D51   D(7,8,9,18)          -178.8772         estimate D2E/DX2                !
 ! D52   D(13,8,9,1)            61.3845         estimate D2E/DX2                !
 ! D53   D(13,8,9,14)         -178.9693         estimate D2E/DX2                !
 ! D54   D(13,8,9,18)          -59.9557         estimate D2E/DX2                !
 ! D55   D(1,9,18,19)          169.6002         estimate D2E/DX2                !
 ! D56   D(1,9,18,20)           52.5623         estimate D2E/DX2                !
 ! D57   D(1,9,18,21)          -69.0299         estimate D2E/DX2                !
 ! D58   D(8,9,18,19)          -69.1317         estimate D2E/DX2                !
 ! D59   D(8,9,18,20)          173.8304         estimate D2E/DX2                !
 ! D60   D(8,9,18,21)           52.2382         estimate D2E/DX2                !
 ! D61   D(14,9,18,19)          50.7841         estimate D2E/DX2                !
 ! D62   D(14,9,18,20)         -66.2538         estimate D2E/DX2                !
 ! D63   D(14,9,18,21)         172.154          estimate D2E/DX2                !
 ! D64   D(9,18,21,22)         179.0496         estimate D2E/DX2                !
 ! D65   D(19,18,21,22)        -61.2457         estimate D2E/DX2                !
 ! D66   D(20,18,21,22)         59.18           estimate D2E/DX2                !
 ! D67   D(5,23,24,25)         179.9445         estimate D2E/DX2                !
 ! D68   D(5,23,24,26)          58.2892         estimate D2E/DX2                !
 ! D69   D(5,23,24,27)         -60.5336         estimate D2E/DX2                !
 ! D70   D(23,24,25,28)        171.8389         estimate D2E/DX2                !
 ! D71   D(23,24,25,29)         54.4593         estimate D2E/DX2                !
 ! D72   D(23,24,25,30)        -67.655          estimate D2E/DX2                !
 ! D73   D(26,24,25,28)        -66.7455         estimate D2E/DX2                !
 ! D74   D(26,24,25,29)        175.875          estimate D2E/DX2                !
 ! D75   D(26,24,25,30)         53.7606         estimate D2E/DX2                !
 ! D76   D(27,24,25,28)         52.4678         estimate D2E/DX2                !
 ! D77   D(27,24,25,29)        -64.9117         estimate D2E/DX2                !
 ! D78   D(27,24,25,30)        172.9739         estimate D2E/DX2                !
 ! D79   D(24,25,30,31)       -171.7515         estimate D2E/DX2                !
 ! D80   D(28,25,30,31)        -52.2848         estimate D2E/DX2                !
 ! D81   D(29,25,30,31)         66.3875         estimate D2E/DX2                !
 ! D82   D(25,30,32,33)        163.2685         estimate D2E/DX2                !
 ! D83   D(25,30,32,40)        -77.2147         estimate D2E/DX2                !
 ! D84   D(25,30,32,47)         44.3336         estimate D2E/DX2                !
 ! D85   D(31,32,33,34)         51.7534         estimate D2E/DX2                !
 ! D86   D(31,32,33,35)        -69.8274         estimate D2E/DX2                !
 ! D87   D(31,32,33,36)        175.3279         estimate D2E/DX2                !
 ! D88   D(40,32,33,34)        -73.0955         estimate D2E/DX2                !
 ! D89   D(40,32,33,35)        165.3237         estimate D2E/DX2                !
 ! D90   D(40,32,33,36)         50.479          estimate D2E/DX2                !
 ! D91   D(47,32,33,34)        174.6724         estimate D2E/DX2                !
 ! D92   D(47,32,33,35)         53.0916         estimate D2E/DX2                !
 ! D93   D(47,32,33,36)        -61.7531         estimate D2E/DX2                !
 ! D94   D(31,32,40,41)         57.9359         estimate D2E/DX2                !
 ! D95   D(31,32,40,42)        -63.4487         estimate D2E/DX2                !
 ! D96   D(31,32,40,43)       -177.9748         estimate D2E/DX2                !
 ! D97   D(33,32,40,41)       -177.5381         estimate D2E/DX2                !
 ! D98   D(33,32,40,42)         61.0773         estimate D2E/DX2                !
 ! D99   D(33,32,40,43)        -53.4488         estimate D2E/DX2                !
 ! D100  D(47,32,40,41)        -65.9942         estimate D2E/DX2                !
 ! D101  D(47,32,40,42)        172.6212         estimate D2E/DX2                !
 ! D102  D(47,32,40,43)         58.0951         estimate D2E/DX2                !
 ! D103  D(31,32,47,48)       -178.2146         estimate D2E/DX2                !
 ! D104  D(31,32,47,49)         58.1802         estimate D2E/DX2                !
 ! D105  D(31,32,47,50)        -54.0215         estimate D2E/DX2                !
 ! D106  D(33,32,47,48)         58.0189         estimate D2E/DX2                !
 ! D107  D(33,32,47,49)        -65.5863         estimate D2E/DX2                !
 ! D108  D(33,32,47,50)       -177.788          estimate D2E/DX2                !
 ! D109  D(40,32,47,48)        -53.1481         estimate D2E/DX2                !
 ! D110  D(40,32,47,49)       -176.7532         estimate D2E/DX2                !
 ! D111  D(40,32,47,50)         71.0451         estimate D2E/DX2                !
 ! D112  D(32,33,34,37)       -177.6642         estimate D2E/DX2                !
 ! D113  D(32,33,34,38)        -57.9232         estimate D2E/DX2                !
 ! D114  D(32,33,34,39)         62.8498         estimate D2E/DX2                !
 ! D115  D(35,33,34,37)        -58.5808         estimate D2E/DX2                !
 ! D116  D(35,33,34,38)         61.1602         estimate D2E/DX2                !
 ! D117  D(35,33,34,39)       -178.0668         estimate D2E/DX2                !
 ! D118  D(36,33,34,37)         60.1812         estimate D2E/DX2                !
 ! D119  D(36,33,34,38)        179.9221         estimate D2E/DX2                !
 ! D120  D(36,33,34,39)        -59.3048         estimate D2E/DX2                !
 ! D121  D(32,40,41,44)       -176.7814         estimate D2E/DX2                !
 ! D122  D(32,40,41,45)        -57.0871         estimate D2E/DX2                !
 ! D123  D(32,40,41,46)         63.6209         estimate D2E/DX2                !
 ! D124  D(42,40,41,44)        -57.7973         estimate D2E/DX2                !
 ! D125  D(42,40,41,45)         61.897          estimate D2E/DX2                !
 ! D126  D(42,40,41,46)       -177.395          estimate D2E/DX2                !
 ! D127  D(43,40,41,44)         60.774          estimate D2E/DX2                !
 ! D128  D(43,40,41,45)       -179.5317         estimate D2E/DX2                !
 ! D129  D(43,40,41,46)        -58.8237         estimate D2E/DX2                !
 ! D130  D(32,47,48,51)       -179.5523         estimate D2E/DX2                !
 ! D131  D(32,47,48,52)        -60.274          estimate D2E/DX2                !
 ! D132  D(32,47,48,53)         61.3207         estimate D2E/DX2                !
 ! D133  D(49,47,48,51)        -58.8828         estimate D2E/DX2                !
 ! D134  D(49,47,48,52)         60.3955         estimate D2E/DX2                !
 ! D135  D(49,47,48,53)       -178.0098         estimate D2E/DX2                !
 ! D136  D(50,47,48,51)         58.6911         estimate D2E/DX2                !
 ! D137  D(50,47,48,52)        177.9694         estimate D2E/DX2                !
 ! D138  D(50,47,48,53)        -60.4359         estimate D2E/DX2                !
 --------------------------------------------------------------------------------
 Trust Radius=3.00D-01 FncErr=1.00D-07 GrdErr=1.00D-06
 Number of steps in this run=    300 maximum allowed number of steps=    318.
 GradGradGradGradGradGradGradGradGradGradGradGradGradGradGradGradGradGrad

 Stoichiometry    C14H30AuO6PS
 Framework group  C1[X(C14H30AuO6PS)]
 Deg. of freedom   153
 Full point group                 C1      NOp   1
 Largest Abelian subgroup         C1      NOp   1
 Largest concise Abelian subgroup C1      NOp   1
                         Standard orientation:                         
 ---------------------------------------------------------------------
 Center     Atomic      Atomic             Coordinates (Angstroms)
 Number     Number       Type             X           Y           Z
 ---------------------------------------------------------------------
      1          8           0        4.403338   -0.669648   -0.502267
      2          8           0        4.503560    2.860925    0.301498
      3          8           0        6.879991    1.911874    1.469754
      4          8           0        7.979229   -0.392311    0.215910
      5          6           0        4.073950    0.698698   -0.618946
      6          6           0        4.785093    1.491670    0.470396
      7          6           0        6.280133    1.231187    0.388384
      8          6           0        6.584111   -0.256073    0.403250
      9          6           0        5.777747   -0.936304   -0.708963
     10          1           0        4.390028    1.062887   -1.616461
     11          1           0        4.408971    1.133581    1.441899
     12          1           0        6.651566    1.646648   -0.564209
     13          1           0        6.280183   -0.677089    1.369829
     14          1           0        6.099175   -0.523805   -1.681012
     15          1           0        5.106707    3.346788    0.873581
     16          1           0        7.828280    1.754929    1.421618
     17          1           0        8.272243   -1.210109    0.624924
     18          6           0        5.981377   -2.434103   -0.772728
     19          1           0        7.006493   -2.629016   -1.117151
     20          1           0        5.287225   -2.846581   -1.517473
     21          8           0        5.757951   -2.999553    0.503378
     22          1           0        5.876959   -3.949711    0.439344
     23          8           0        2.715200    0.835916   -0.458660
     24          6           0        1.950444    0.416263   -1.578244
     25          6           0        0.478977    0.611426   -1.287653
     26          1           0        2.160634   -0.636997   -1.804595
     27          1           0        2.231864    1.023529   -2.453310
     28          1           0       -0.073275    0.420907   -2.211409
     29          1           0        0.298363    1.649421   -0.992741
     30         16           0       -0.107346   -0.524161    0.025260
     31         79           0       -2.420972   -0.248615    0.046225
     32         15           0       -4.709212   -0.037312    0.106090
     33          6           0       -5.541951   -1.409620    0.986520
     34          6           0       -4.976624   -1.677934    2.378688
     35          1           0       -5.425864   -2.293405    0.348743
     36          1           0       -6.613098   -1.183759    1.038119
     37          1           0       -5.487404   -2.532627    2.832915
     38          1           0       -3.906754   -1.905499    2.332345
     39          1           0       -5.111555   -0.820575    3.045269
     40          6           0       -5.290684    1.482447    0.943154
     41          6           0       -4.754477    2.766832    0.317968
     42          1           0       -4.962317    1.400094    1.984942
     43          1           0       -6.386978    1.471935    0.951384
     44          1           0       -5.089227    3.634890    0.893986
     45          1           0       -3.659540    2.770720    0.303674
     46          1           0       -5.106401    2.896152   -0.710499
     47          6           0       -5.441498   -0.017508   -1.573583
     48          6           0       -6.954557    0.161338   -1.659898
     49          1           0       -5.131002   -0.961278   -2.036634
     50          1           0       -4.922124    0.774827   -2.124084
     51          1           0       -7.267701    0.148217   -2.708671
     52          1           0       -7.491260   -0.641172   -1.145551
     53          1           0       -7.278091    1.115442   -1.233049
 ---------------------------------------------------------------------
 Rotational constants (GHZ):      0.4355512      0.0470936      0.0452255
 General basis read from cards:  (5D, 7F)
 ======================================================================================================
                                       Pseudopotential Parameters
 ======================================================================================================
  Center     Atomic      Valence      Angular      Power
  Number     Number     Electrons     Momentum     of R      Exponent        Coefficient   SO-Coeffient
 ======================================================================================================
    1          8
                                   No pseudopotential on this center.
    2          8
                                   No pseudopotential on this center.
    3          8
                                   No pseudopotential on this center.
    4          8
                                   No pseudopotential on this center.
    5          6
                                   No pseudopotential on this center.
    6          6
                                   No pseudopotential on this center.
    7          6
                                   No pseudopotential on this center.
    8          6
                                   No pseudopotential on this center.
    9          6
                                   No pseudopotential on this center.
   10          1
                                   No pseudopotential on this center.
   11          1
                                   No pseudopotential on this center.
   12          1
                                   No pseudopotential on this center.
   13          1
                                   No pseudopotential on this center.
   14          1
                                   No pseudopotential on this center.
   15          1
                                   No pseudopotential on this center.
   16          1
                                   No pseudopotential on this center.
   17          1
                                   No pseudopotential on this center.
   18          6
                                   No pseudopotential on this center.
   19          1
                                   No pseudopotential on this center.
   20          1
                                   No pseudopotential on this center.
   21          8
                                   No pseudopotential on this center.
   22          1
                                   No pseudopotential on this center.
   23          8
                                   No pseudopotential on this center.
   24          6
                                   No pseudopotential on this center.
   25          6
                                   No pseudopotential on this center.
   26          1
                                   No pseudopotential on this center.
   27          1
                                   No pseudopotential on this center.
   28          1
                                   No pseudopotential on this center.
   29          1
                                   No pseudopotential on this center.
   30         16
                                   No pseudopotential on this center.
   31         79           19
                                      G and up 
                                                     1      622.6287956      -60.00000000    0.00000000
                                                     2      136.2843607     -555.52923120    0.00000000
                                                     2       33.1549781     -168.00197850    0.00000000
                                                     2        9.9894895      -63.03998750    0.00000000
                                                     2        3.0481312       -4.25166810    0.00000000
                                      S - G
                                                     0      194.7374304        3.00000000    0.00000000
                                                     1      351.5327447       38.60208800    0.00000000
                                                     2      122.3270402      864.83707270    0.00000000
                                                     2       32.0914617      374.99355200    0.00000000
                                                     2        5.2451812      289.79101000    0.00000000
                                                     2        4.4916223     -152.45327730    0.00000000
                                      P - G
                                                     0      420.6158801        2.00000000    0.00000000
                                                     1      109.4417815       73.88856250    0.00000000
                                                     2       34.1714280      326.67298720    0.00000000
                                                     2        5.9879750      126.58145910    0.00000000
                                      D - G
                                                     0      219.2666158        3.00000000    0.00000000
                                                     1      122.7297786       55.67931490    0.00000000
                                                     2       63.1063369      449.19873350    0.00000000
                                                     2       18.3684520      215.02690910    0.00000000
                                                     2        4.4972844       64.08409950    0.00000000
                                      F - G
                                                     0      108.5506037        4.00000000    0.00000000
                                                     1       56.4795527       51.80653350    0.00000000
                                                     2       29.2069159      231.21831130    0.00000000
                                                     2        9.5440543      119.00473860    0.00000000
                                                     2        2.8965118       15.34241880    0.00000000
   32         15
                                   No pseudopotential on this center.
   33          6
                                   No pseudopotential on this center.
   34          6
                                   No pseudopotential on this center.
   35          1
                                   No pseudopotential on this center.
   36          1
                                   No pseudopotential on this center.
   37          1
                                   No pseudopotential on this center.
   38          1
                                   No pseudopotential on this center.
   39          1
                                   No pseudopotential on this center.
   40          6
                                   No pseudopotential on this center.
   41          6
                                   No pseudopotential on this center.
   42          1
                                   No pseudopotential on this center.
   43          1
                                   No pseudopotential on this center.
   44          1
                                   No pseudopotential on this center.
   45          1
                                   No pseudopotential on this center.
   46          1
                                   No pseudopotential on this center.
   47          6
                                   No pseudopotential on this center.
   48          6
                                   No pseudopotential on this center.
   49          1
                                   No pseudopotential on this center.
   50          1
                                   No pseudopotential on this center.
   51          1
                                   No pseudopotential on this center.
   52          1
                                   No pseudopotential on this center.
   53          1
                                   No pseudopotential on this center.
 ======================================================================================================
 There are   446 symmetry adapted cartesian basis functions of A   symmetry.
 There are   418 symmetry adapted basis functions of A   symmetry.
   418 basis functions,   832 primitive gaussians,   446 cartesian basis functions
   106 alpha electrons      106 beta electrons
       nuclear repulsion energy      2549.3243605806 Hartrees.
 NAtoms=   53 NActive=   53 NUniq=   53 SFac= 1.00D+00 NAtFMM=   60 NAOKFM=F Big=F
 Integral buffers will be    131072 words long.
 Raffenetti 2 integral format.
 Two-electron integral symmetry is turned on.
 One-electron integrals computed using PRISM.
   1 Symmetry operations used in ECPInt.
 ECPInt:  NShTT=   13530 NPrTT=   75982 LenC2=    9273 LenP2D=   29804.
 LDataN:  DoStor=T MaxTD1= 7 Len=  274
 NBasis=   418 RedAO= T EigKep=  1.97D-03  NBF=   418
 NBsUse=   418 1.00D-06 EigRej= -1.00D+00 NBFU=   418
 Defaulting to unpruned grid for atomic number  79.
 ExpMin= 2.79D-02 ExpMax= 2.19D+04 ExpMxC= 3.30D+03 IAcc=3 IRadAn=         5 AccDes= 0.00D+00
 Harris functional with IExCor=  402 and IRadAn=       5 diagonalized for initial guess.
 HarFok:  IExCor=  402 AccDes= 0.00D+00 IRadAn=         5 IDoV= 1 UseB2=F ITyADJ=14
 ICtDFT=  3500011 ScaDFX=  1.000000  1.000000  1.000000  1.000000
 Defaulting to unpruned grid for atomic number  79.
 Defaulting to unpruned grid for atomic number  79.
 Defaulting to unpruned grid for atomic number  79.
 Defaulting to unpruned grid for atomic number  79.
 Defaulting to unpruned grid for atomic number  79.
 Defaulting to unpruned grid for atomic number  79.
 Defaulting to unpruned grid for atomic number  79.
 Defaulting to unpruned grid for atomic number  79.
 FoFCou: FMM=F IPFlag=           0 FMFlag=      100000 FMFlg1=           0
         NFxFlg=           0 DoJE=T BraDBF=F KetDBF=T FulRan=T
         wScrn=  0.000000 ICntrl=     500 IOpCl=  0 I1Cent=   200000004 NGrid=           0
         NMat0=    1 NMatS0=      1 NMatT0=    0 NMatD0=    1 NMtDS0=    0 NMtDT0=    0
 Petite list used in FoFCou.
 Keep R1 ints in memory in canonical form, NReq=3879663124.
 Requested convergence on RMS density matrix=1.00D-08 within 128 cycles.
 Requested convergence on MAX density matrix=1.00D-06.
 Requested convergence on             energy=1.00D-06.
 No special actions if energy rises.
 Defaulting to unpruned grid for atomic number  79.
 Defaulting to unpruned grid for atomic number  79.
 Defaulting to unpruned grid for atomic number  79.
 Defaulting to unpruned grid for atomic number  79.
 Defaulting to unpruned grid for atomic number  79.
 Defaulting to unpruned grid for atomic number  79.
 Defaulting to unpruned grid for atomic number  79.
 Defaulting to unpruned grid for atomic number  79.
 SCF Done:  E(RB3LYP) =  -1877.91262474     A.U. after   12 cycles
            NFock= 12  Conv=0.90D-08     -V/T= 2.0561

 **********************************************************************

            Population analysis using the SCF density.

 **********************************************************************

 Orbital symmetries:
       Occupied  (A) (A) (A) (A) (A) (A) (A) (A) (A) (A) (A) (A)
                 (A) (A) (A) (A) (A) (A) (A) (A) (A) (A) (A) (A)
                 (A) (A) (A) (A) (A) (A) (A) (A) (A) (A) (A) (A)
                 (A) (A) (A) (A) (A) (A) (A) (A) (A) (A) (A) (A)
                 (A) (A) (A) (A) (A) (A) (A) (A) (A) (A) (A) (A)
                 (A) (A) (A) (A) (A) (A) (A) (A) (A) (A) (A) (A)
                 (A) (A) (A) (A) (A) (A) (A) (A) (A) (A) (A) (A)
                 (A) (A) (A) (A) (A) (A) (A) (A) (A) (A) (A) (A)
                 (A) (A) (A) (A) (A) (A) (A) (A) (A) (A)
       Virtual   (A) (A) (A) (A) (A) (A) (A) (A) (A) (A) (A) (A)
                 (A) (A) (A) (A) (A) (A) (A) (A) (A) (A) (A) (A)
                 (A) (A) (A) (A) (A) (A) (A) (A) (A) (A) (A) (A)
                 (A) (A) (A) (A) (A) (A) (A) (A) (A) (A) (A) (A)
                 (A) (A) (A) (A) (A) (A) (A) (A) (A) (A) (A) (A)
                 (A) (A) (A) (A) (A) (A) (A) (A) (A) (A) (A) (A)
                 (A) (A) (A) (A) (A) (A) (A) (A) (A) (A) (A) (A)
                 (A) (A) (A) (A) (A) (A) (A) (A) (A) (A) (A) (A)
                 (A) (A) (A) (A) (A) (A) (A) (A) (A) (A) (A) (A)
                 (A) (A) (A) (A) (A) (A) (A) (A) (A) (A) (A) (A)
                 (A) (A) (A) (A) (A) (A) (A) (A) (A) (A) (A) (A)
                 (A) (A) (A) (A) (A) (A) (A) (A) (A) (A) (A) (A)
                 (A) (A) (A) (A) (A) (A) (A) (A) (A) (A) (A) (A)
                 (A) (A) (A) (A) (A) (A) (A) (A) (A) (A) (A) (A)
                 (A) (A) (A) (A) (A) (A) (A) (A) (A) (A) (A) (A)
                 (A) (A) (A) (A) (A) (A) (A) (A) (A) (A) (A) (A)
                 (A) (A) (A) (A) (A) (A) (A) (A) (A) (A) (A) (A)
                 (A) (A) (A) (A) (A) (A) (A) (A) (A) (A) (A) (A)
                 (A) (A) (A) (A) (A) (A) (A) (A) (A) (A) (A) (A)
                 (A) (A) (A) (A) (A) (A) (A) (A) (A) (A) (A) (A)
                 (A) (A) (A) (A) (A) (A) (A) (A) (A) (A) (A) (A)
                 (A) (A) (A) (A) (A) (A) (A) (A) (A) (A) (A) (A)
                 (A) (A) (A) (A) (A) (A) (A) (A) (A) (A) (A) (A)
                 (A) (A) (A) (A) (A) (A) (A) (A) (A) (A) (A) (A)
                 (A) (A) (A) (A) (A) (A) (A) (A) (A) (A) (A) (A)
                 (A) (A) (A) (A) (A) (A) (A) (A) (A) (A) (A) (A)
 The electronic state is 1-A.
 Alpha  occ. eigenvalues --  -88.78690 -77.10920 -19.14368 -19.13494 -19.13197
 Alpha  occ. eigenvalues --  -19.13116 -19.12512 -19.11425 -10.25760 -10.22199
 Alpha  occ. eigenvalues --  -10.22166 -10.21717 -10.21487 -10.20786 -10.20689
 Alpha  occ. eigenvalues --  -10.20674 -10.20564 -10.20213 -10.19761 -10.18948
 Alpha  occ. eigenvalues --  -10.18836 -10.16992  -7.86337  -6.59034  -5.82727
 Alpha  occ. eigenvalues --   -5.82301  -5.81868  -4.75178  -4.75169  -4.74922
 Alpha  occ. eigenvalues --   -4.15006  -2.29614  -2.27588  -2.27405  -1.06167
 Alpha  occ. eigenvalues --   -1.03485  -1.02151  -1.01417  -0.99744  -0.99245
 Alpha  occ. eigenvalues --   -0.82435  -0.78095  -0.77839  -0.77350  -0.76948
 Alpha  occ. eigenvalues --   -0.74197  -0.68917  -0.68291  -0.64801  -0.64583
 Alpha  occ. eigenvalues --   -0.63727  -0.61271  -0.59867  -0.57327  -0.56100
 Alpha  occ. eigenvalues --   -0.55047  -0.53475  -0.52268  -0.50858  -0.49876
 Alpha  occ. eigenvalues --   -0.49113  -0.48476  -0.47627  -0.47357  -0.47306
 Alpha  occ. eigenvalues --   -0.45718  -0.44514  -0.44064  -0.43783  -0.43582
 Alpha  occ. eigenvalues --   -0.42758  -0.42121  -0.41583  -0.40623  -0.39813
 Alpha  occ. eigenvalues --   -0.39546  -0.39510  -0.38801  -0.38482  -0.38092
 Alpha  occ. eigenvalues --   -0.37585  -0.36732  -0.36552  -0.36049  -0.35377
 Alpha  occ. eigenvalues --   -0.34529  -0.34303  -0.34073  -0.33289  -0.31958
 Alpha  occ. eigenvalues --   -0.31673  -0.30936  -0.30762  -0.30494  -0.28490
 Alpha  occ. eigenvalues --   -0.28467  -0.27959  -0.27844  -0.26777  -0.26382
 Alpha  occ. eigenvalues --   -0.25867  -0.25083  -0.24438  -0.23548  -0.21497
 Alpha  occ. eigenvalues --   -0.17045
 Alpha virt. eigenvalues --   -0.01233  -0.00162   0.02991   0.04238   0.05768
 Alpha virt. eigenvalues --    0.06099   0.06179   0.07906   0.08109   0.09289
 Alpha virt. eigenvalues --    0.10165   0.10569   0.11051   0.11088   0.11250
 Alpha virt. eigenvalues --    0.11828   0.12479   0.13564   0.13789   0.13852
 Alpha virt. eigenvalues --    0.14180   0.14572   0.14734   0.15141   0.15746
 Alpha virt. eigenvalues --    0.16034   0.16146   0.16425   0.16951   0.17485
 Alpha virt. eigenvalues --    0.18406   0.18602   0.18746   0.19008   0.19600
 Alpha virt. eigenvalues --    0.19813   0.20123   0.20563   0.20613   0.20841
 Alpha virt. eigenvalues --    0.21240   0.21747   0.21931   0.22889   0.23408
 Alpha virt. eigenvalues --    0.23762   0.24522   0.24995   0.25490   0.26673
 Alpha virt. eigenvalues --    0.27810   0.28122   0.28970   0.30615   0.31093
 Alpha virt. eigenvalues --    0.32214   0.33855   0.35174   0.37457   0.37960
 Alpha virt. eigenvalues --    0.38181   0.40380   0.41211   0.42402   0.42808
 Alpha virt. eigenvalues --    0.44189   0.45244   0.48070   0.48497   0.50239
 Alpha virt. eigenvalues --    0.52305   0.53737   0.53918   0.55597   0.56056
 Alpha virt. eigenvalues --    0.56208   0.56395   0.57744   0.58017   0.58465
 Alpha virt. eigenvalues --    0.58834   0.59345   0.60060   0.60384   0.60823
 Alpha virt. eigenvalues --    0.61537   0.62383   0.62567   0.63003   0.63870
 Alpha virt. eigenvalues --    0.64908   0.65912   0.66810   0.66931   0.67815
 Alpha virt. eigenvalues --    0.68601   0.69881   0.69950   0.71863   0.72162
 Alpha virt. eigenvalues --    0.73639   0.74433   0.74854   0.75620   0.77623
 Alpha virt. eigenvalues --    0.78677   0.79711   0.80335   0.80597   0.82474
 Alpha virt. eigenvalues --    0.82700   0.83058   0.83204   0.84117   0.84610
 Alpha virt. eigenvalues --    0.84968   0.85251   0.85487   0.85832   0.85903
 Alpha virt. eigenvalues --    0.86179   0.86416   0.87182   0.87816   0.88575
 Alpha virt. eigenvalues --    0.88860   0.89719   0.90089   0.90439   0.90851
 Alpha virt. eigenvalues --    0.91588   0.92405   0.92834   0.92967   0.93529
 Alpha virt. eigenvalues --    0.93884   0.94191   0.94749   0.95213   0.96859
 Alpha virt. eigenvalues --    0.97254   0.97480   0.97983   0.98991   0.99060
 Alpha virt. eigenvalues --    0.99572   1.00320   1.00820   1.01155   1.01780
 Alpha virt. eigenvalues --    1.02127   1.02618   1.03305   1.03904   1.04527
 Alpha virt. eigenvalues --    1.05101   1.05695   1.06432   1.06731   1.08458
 Alpha virt. eigenvalues --    1.10747   1.11901   1.13764   1.14407   1.17734
 Alpha virt. eigenvalues --    1.18287   1.19541   1.21826   1.22222   1.25492
 Alpha virt. eigenvalues --    1.25960   1.28363   1.29244   1.30260   1.32913
 Alpha virt. eigenvalues --    1.34542   1.36592   1.36809   1.39219   1.42442
 Alpha virt. eigenvalues --    1.45554   1.45919   1.48062   1.49143   1.50684
 Alpha virt. eigenvalues --    1.51242   1.53588   1.53712   1.54304   1.54972
 Alpha virt. eigenvalues --    1.56035   1.57029   1.58486   1.61321   1.63662
 Alpha virt. eigenvalues --    1.66007   1.66101   1.67693   1.69261   1.69473
 Alpha virt. eigenvalues --    1.71209   1.73372   1.74659   1.75151   1.76958
 Alpha virt. eigenvalues --    1.77900   1.81544   1.81855   1.82668   1.83062
 Alpha virt. eigenvalues --    1.84551   1.85015   1.87053   1.88256   1.88692
 Alpha virt. eigenvalues --    1.90418   1.91298   1.92335   1.92640   1.94509
 Alpha virt. eigenvalues --    1.94873   1.95089   1.95411   1.96596   1.96888
 Alpha virt. eigenvalues --    1.97171   1.97402   1.97758   1.99025   1.99619
 Alpha virt. eigenvalues --    1.99943   2.00098   2.00427   2.01231   2.01682
 Alpha virt. eigenvalues --    2.02454   2.02537   2.02986   2.03840   2.04131
 Alpha virt. eigenvalues --    2.04710   2.05224   2.05282   2.08289   2.09676
 Alpha virt. eigenvalues --    2.10728   2.11274   2.11450   2.12974   2.13377
 Alpha virt. eigenvalues --    2.14297   2.14995   2.17485   2.17770   2.18304
 Alpha virt. eigenvalues --    2.18552   2.21472   2.22000   2.22877   2.24825
 Alpha virt. eigenvalues --    2.26305   2.26364   2.27276   2.27790   2.28459
 Alpha virt. eigenvalues --    2.28665   2.29311   2.30244   2.30827   2.31377
 Alpha virt. eigenvalues --    2.31952   2.32883   2.33221   2.33556   2.34126
 Alpha virt. eigenvalues --    2.35852   2.36433   2.37960   2.41498   2.41711
 Alpha virt. eigenvalues --    2.45293   2.47955   2.48943   2.52464   2.56247
 Alpha virt. eigenvalues --    2.57783   2.58553   2.58773   2.59913   2.60291
 Alpha virt. eigenvalues --    2.62655   2.63261   2.65843   2.67493   2.68801
 Alpha virt. eigenvalues --    2.72158   2.73750   2.74759   2.81213   2.83658
 Alpha virt. eigenvalues --    2.89419   2.90245   2.98621   3.01756   3.05255
 Alpha virt. eigenvalues --    3.08023   3.10159   3.17009  15.60660  15.61632
 Alpha virt. eigenvalues --   15.70556  43.16082
          Condensed to atoms (all electrons):
 Mulliken charges:
               1
     1  O   -0.486447
     2  O   -0.653131
     3  O   -0.663013
     4  O   -0.663402
     5  C    0.390624
     6  C    0.132772
     7  C    0.096291
     8  C    0.108171
     9  C    0.122394
    10  H    0.087671
    11  H    0.144010
    12  H    0.116149
    13  H    0.156950
    14  H    0.113712
    15  H    0.409433
    16  H    0.408402
    17  H    0.411127
    18  C   -0.048613
    19  H    0.116063
    20  H    0.140184
    21  O   -0.628281
    22  H    0.404299
    23  O   -0.463146
    24  C   -0.016041
    25  C   -0.410873
    26  H    0.155875
    27  H    0.116215
    28  H    0.169195
    29  H    0.185320
    30  S   -0.140349
    31  Au  -0.165321
    32  P    0.455131
    33  C   -0.443779
    34  C   -0.470209
    35  H    0.185781
    36  H    0.166792
    37  H    0.159810
    38  H    0.211721
    39  H    0.158864
    40  C   -0.439649
    41  C   -0.472170
    42  H    0.191877
    43  H    0.165307
    44  H    0.161441
    45  H    0.209100
    46  H    0.153523
    47  C   -0.451251
    48  C   -0.456548
    49  H    0.193744
    50  H    0.193082
    51  H    0.164572
    52  H    0.158040
    53  H    0.158579
 Sum of Mulliken charges =   0.00000
 Mulliken charges with hydrogens summed into heavy atoms:
               1
     1  O   -0.486447
     2  O   -0.243698
     3  O   -0.254612
     4  O   -0.252275
     5  C    0.478295
     6  C    0.276782
     7  C    0.212441
     8  C    0.265121
     9  C    0.236105
    18  C    0.207634
    21  O   -0.223982
    23  O   -0.463146
    24  C    0.256049
    25  C   -0.056358
    30  S   -0.140349
    31  Au  -0.165321
    32  P    0.455131
    33  C   -0.091206
    34  C    0.060187
    40  C   -0.082464
    41  C    0.051894
    47  C   -0.064425
    48  C    0.024643
 Electronic spatial extent (au):  <R**2>=          21189.5426
 Charge=              0.0000 electrons
 Dipole moment (field-independent basis, Debye):
    X=             -5.7343    Y=             -1.6824    Z=             -1.8140  Tot=              6.2452
 Quadrupole moment (field-independent basis, Debye-Ang):
   XX=            -92.0386   YY=           -162.1518   ZZ=           -166.6490
   XY=            -19.5525   XZ=             -3.1280   YZ=              0.0415
 Traceless Quadrupole moment (field-independent basis, Debye-Ang):
   XX=             48.2412   YY=            -21.8720   ZZ=            -26.3692
   XY=            -19.5525   XZ=             -3.1280   YZ=              0.0415
 Octapole moment (field-independent basis, Debye-Ang**2):
  XXX=           -184.1127  YYY=            -80.1069  ZZZ=              5.1105  XYY=             -8.0004
  XXY=           -128.7933  XXZ=             28.9895  XZZ=            -74.7674  YZZ=             -9.7669
  YYZ=             12.6021  XYZ=              9.8671
 Hexadecapole moment (field-independent basis, Debye-Ang**3):
 XXXX=         -20215.2193 YYYY=          -1871.1753 ZZZZ=          -1196.1300 XXXY=           -691.4043
 XXXZ=            423.8956 YYYX=           -255.9268 YYYZ=             31.6891 ZZZX=             31.2981
 ZZZY=             -2.8666 XXYY=          -3696.1602 XXZZ=          -4049.9267 YYZZ=           -551.8812
 XXYZ=             15.8010 YYXZ=             12.8358 ZZXY=             19.1093
 N-N= 2.549324360581D+03 E-N=-9.483965448117D+03  KE= 1.778182161347D+03
   1 Symmetry operations used in ECPInt.
 ECPInt:  NShTT=   13530 NPrTT=   75982 LenC2=    9273 LenP2D=   29804.
 LDataN:  DoStor=T MaxTD1= 8 Len=  415
 Calling FoFJK, ICntrl=      2127 FMM=F ISym2X=0 I1Cent= 0 IOpClX= 0 NMat=1 NMatS=1 NMatT=0.
 Defaulting to unpruned grid for atomic number  79.
 Defaulting to unpruned grid for atomic number  79.
 Defaulting to unpruned grid for atomic number  79.
 Defaulting to unpruned grid for atomic number  79.
 Defaulting to unpruned grid for atomic number  79.
 Defaulting to unpruned grid for atomic number  79.
 Defaulting to unpruned grid for atomic number  79.
 Defaulting to unpruned grid for atomic number  79.
 ***** Axes restored to original set *****
 -------------------------------------------------------------------
 Center     Atomic                   Forces (Hartrees/Bohr)
 Number     Number              X              Y              Z
 -------------------------------------------------------------------
      1        8          -0.000483285   -0.009115340   -0.001009389
      2        8          -0.006402571    0.002876413   -0.007978032
      3        8          -0.005159462    0.006645403    0.007252726
      4        8           0.010412940    0.007053659   -0.005050670
      5        6          -0.002415638    0.005150533   -0.000747181
      6        6          -0.002014552    0.000724393    0.004772688
      7        6           0.001094817   -0.000603665   -0.003636747
      8        6          -0.005522038   -0.001413479    0.004396647
      9        6           0.000269608    0.000113505   -0.000904342
     10        1           0.000927591    0.001004170   -0.000565966
     11        1           0.000200270   -0.001189733   -0.000662484
     12        1          -0.000232586   -0.000201364   -0.000969289
     13        1          -0.001131204    0.000243277   -0.000922058
     14        1           0.001349241    0.000505379   -0.000823255
     15        1           0.005819960    0.002021383    0.005686433
     16        1           0.007604258   -0.002951883   -0.001714831
     17        1           0.000599873   -0.007397173    0.003628702
     18        6          -0.001078510   -0.004209701   -0.003275182
     19        1           0.002038702    0.000537560   -0.001729294
     20        1          -0.000534135    0.000096023   -0.001349985
     21        8           0.000628150    0.007413840    0.006815968
     22        1           0.000043925   -0.008332024   -0.000960806
     23        8          -0.003022137    0.003206777    0.002292180
     24        6           0.002047183   -0.003267084   -0.001487129
     25        6          -0.003637356    0.005397666   -0.003971691
     26        1          -0.000206664    0.000041364   -0.000309666
     27        1           0.000153881    0.000655995   -0.001554304
     28        1          -0.000021354    0.000292104   -0.001480602
     29        1           0.001151987    0.000568373   -0.000165891
     30       16          -0.003990561   -0.005926684    0.006980364
     31       79           0.005909217   -0.000374486   -0.001479944
     32       15           0.014006300   -0.001203548    0.000654327
     33        6          -0.005986458   -0.002694677   -0.000900258
     34        6           0.001221080   -0.001832746    0.002984993
     35        1          -0.000184576   -0.001087791    0.000311630
     36        1          -0.001674667   -0.001516609    0.000762388
     37        1          -0.000189731   -0.000526239    0.000790039
     38        1          -0.000006540    0.000094196    0.000303166
     39        1           0.000172583    0.000394381    0.000605015
     40        6          -0.005434069    0.001243173    0.003806747
     41        6           0.001245245    0.003424698   -0.000379879
     42        1           0.000216218    0.000680216    0.000451813
     43        1          -0.001344573    0.001784989    0.000910806
     44        1          -0.000025921    0.000976913   -0.000007513
     45        1           0.000048629    0.000111885    0.000026325
     46        1          -0.000150945    0.000396002   -0.000717939
     47        6          -0.000801297   -0.000177714   -0.004157007
     48        6          -0.002963439    0.000383754   -0.002493135
     49        1           0.000045579    0.000007739   -0.001037461
     50        1          -0.000009200   -0.000180663   -0.000924995
     51        1          -0.001337128    0.000065437   -0.000529201
     52        1          -0.000717425   -0.000382938    0.000249882
     53        1          -0.000529217    0.000474344    0.000213289
 -------------------------------------------------------------------
 Cartesian Forces:  Max     0.014006300 RMS     0.003246026

 GradGradGradGradGradGradGradGradGradGradGradGradGradGradGradGradGradGrad
 Berny optimization.
 FormGI is forming the generalized inverse of G from B-inverse, IUseBI=4.
 GSVD:  received Info=                   1 from GESDD.
 Internal  Forces:  Max     0.011086325 RMS     0.002289602
 Search for a local minimum.
 Step number   1 out of a maximum of  300
 All quantities printed in internal units (Hartrees-Bohrs-Radians)
 Mixed Optimization -- RFO/linear search
 Second derivative matrix not updated -- first step.
 ITU=  0
     Eigenvalues ---    0.00230   0.00230   0.00230   0.00230   0.00417
     Eigenvalues ---    0.00422   0.00425   0.00595   0.00600   0.00727
     Eigenvalues ---    0.00735   0.00757   0.00759   0.00769   0.01436
     Eigenvalues ---    0.01504   0.01513   0.01539   0.01551   0.01585
     Eigenvalues ---    0.02022   0.03027   0.03343   0.03378   0.03639
     Eigenvalues ---    0.03641   0.04488   0.04813   0.04866   0.04868
     Eigenvalues ---    0.04897   0.04942   0.04943   0.04991   0.05290
     Eigenvalues ---    0.05324   0.05337   0.05377   0.05468   0.05478
     Eigenvalues ---    0.05496   0.05640   0.05645   0.05672   0.05689
     Eigenvalues ---    0.05699   0.05910   0.06011   0.06050   0.06234
     Eigenvalues ---    0.06319   0.06594   0.06630   0.06889   0.07181
     Eigenvalues ---    0.07999   0.08620   0.08620   0.09153   0.09326
     Eigenvalues ---    0.10978   0.11113   0.11162   0.11336   0.11560
     Eigenvalues ---    0.12356   0.12357   0.12713   0.13755   0.13758
     Eigenvalues ---    0.13768   0.14128   0.15441   0.15699   0.16000
     Eigenvalues ---    0.16000   0.16000   0.16000   0.16000   0.16000
     Eigenvalues ---    0.16000   0.16000   0.16000   0.16000   0.16000
     Eigenvalues ---    0.16000   0.16000   0.16477   0.17172   0.18597
     Eigenvalues ---    0.19139   0.19264   0.20177   0.20866   0.21942
     Eigenvalues ---    0.21957   0.21966   0.22028   0.22036   0.22058
     Eigenvalues ---    0.23717   0.23734   0.23833   0.23898   0.25000
     Eigenvalues ---    0.25000   0.27592   0.29419   0.29539   0.29764
     Eigenvalues ---    0.29765   0.29793   0.29816   0.31059   0.31098
     Eigenvalues ---    0.32817   0.33267   0.33284   0.33496   0.33506
     Eigenvalues ---    0.33809   0.33852   0.33947   0.33991   0.34086
     Eigenvalues ---    0.34112   0.34123   0.34138   0.34160   0.34195
     Eigenvalues ---    0.34237   0.34265   0.34278   0.34286   0.34309
     Eigenvalues ---    0.34315   0.34326   0.34336   0.34344   0.34365
     Eigenvalues ---    0.34471   0.41358   0.41963   0.42565   0.43343
     Eigenvalues ---    0.43448   0.43756   0.44310   0.50021   0.54860
     Eigenvalues ---    0.54962   0.55435   0.55534
 RFO step:  Lambda=-6.17702848D-03 EMin= 2.30000000D-03
 Linear search not attempted -- first point.
 Iteration  1 RMS(Cart)=  0.17512188 RMS(Int)=  0.00629373
 Iteration  2 RMS(Cart)=  0.06081330 RMS(Int)=  0.00059770
 Iteration  3 RMS(Cart)=  0.00195709 RMS(Int)=  0.00020271
 Iteration  4 RMS(Cart)=  0.00000036 RMS(Int)=  0.00020271
 Variable       Old X    -DE/DX   Delta X   Delta X   Delta X     New X
                                 (Linear)    (Quad)   (Total)
    R1        2.66879   0.01086   0.00000   0.02643   0.02642   2.69521
    R2        2.67437   0.00508   0.00000   0.01150   0.01149   2.68585
    R3        2.66086   0.00515   0.00000   0.01146   0.01146   2.67232
    R4        1.81957   0.00805   0.00000   0.01451   0.01451   1.83408
    R5        2.66748   0.00707   0.00000   0.01592   0.01592   2.68340
    R6        1.81866   0.00806   0.00000   0.01450   0.01450   1.83316
    R7        2.67248   0.01109   0.00000   0.02522   0.02522   2.69770
    R8        1.81447   0.00803   0.00000   0.01432   0.01432   1.82880
    R9        2.87909   0.00454   0.00000   0.01668   0.01665   2.89574
   R10        2.09374   0.00110   0.00000   0.00330   0.00330   2.09704
   R11        2.59844   0.00602   0.00000   0.01189   0.01189   2.61033
   R12        2.87196   0.00545   0.00000   0.01778   0.01779   2.88975
   R13        2.08171  -0.00026   0.00000  -0.00077  -0.00077   2.08094
   R14        2.86875   0.00464   0.00000   0.01214   0.01215   2.88090
   R15        2.08556   0.00068   0.00000   0.00201   0.00201   2.08757
   R16        2.89687   0.00434   0.00000   0.01284   0.01287   2.90974
   R17        2.07345  -0.00059   0.00000  -0.00171  -0.00171   2.07174
   R18        2.08586   0.00131   0.00000   0.00386   0.00386   2.08972
   R19        2.85901   0.00461   0.00000   0.01457   0.01457   2.87357
   R20        2.07653   0.00235   0.00000   0.00683   0.00683   2.08336
   R21        2.07580   0.00122   0.00000   0.00354   0.00354   2.07934
   R22        2.67121   0.00553   0.00000   0.01256   0.01256   2.68376
   R23        1.81361   0.00832   0.00000   0.01482   0.01482   1.82843
   R24        2.68210   0.00426   0.00000   0.00986   0.00986   2.69196
   R25        2.85827   0.00506   0.00000   0.01595   0.01595   2.87421
   R26        2.07420  -0.00002   0.00000  -0.00005  -0.00005   2.07415
   R27        2.08188   0.00164   0.00000   0.00480   0.00480   2.08668
   R28        2.06543   0.00121   0.00000   0.00345   0.00345   2.06888
   R29        2.06753   0.00031   0.00000   0.00088   0.00088   2.06841
   R30        3.46242   0.00905   0.00000   0.03716   0.03716   3.49958
   R31        4.40320  -0.00150   0.00000  -0.00759  -0.00758   4.39561
   R32        4.34402   0.00444   0.00000   0.02068   0.02067   4.36469
   R33        3.45972   0.01074   0.00000   0.04393   0.04392   3.50364
   R34        3.45797   0.01076   0.00000   0.04391   0.04391   3.50187
   R35        3.46286   0.01048   0.00000   0.04307   0.04307   3.50593
   R36        2.88437   0.00504   0.00000   0.01658   0.01659   2.90096
   R37        2.07122   0.00068   0.00000   0.00196   0.00196   2.07318
   R38        2.07098   0.00136   0.00000   0.00391   0.00391   2.07489
   R39        2.06812   0.00083   0.00000   0.00238   0.00238   2.07050
   R40        2.06884  -0.00004   0.00000  -0.00011  -0.00011   2.06873
   R41        2.06802   0.00065   0.00000   0.00186   0.00186   2.06988
   R42        2.88332   0.00495   0.00000   0.01627   0.01627   2.89959
   R43        2.07003   0.00045   0.00000   0.00128   0.00128   2.07131
   R44        2.07185   0.00133   0.00000   0.00384   0.00384   2.07569
   R45        2.06783   0.00078   0.00000   0.00224   0.00224   2.07007
   R46        2.06932   0.00005   0.00000   0.00014   0.00014   2.06946
   R47        2.06864   0.00076   0.00000   0.00219   0.00219   2.07083
   R48        2.88379   0.00571   0.00000   0.01878   0.01878   2.90256
   R49        2.07141   0.00044   0.00000   0.00127   0.00127   2.07268
   R50        2.07060   0.00033   0.00000   0.00096   0.00096   2.07156
   R51        2.06850   0.00089   0.00000   0.00255   0.00255   2.07105
   R52        2.06718   0.00075   0.00000   0.00214   0.00214   2.06932
   R53        2.06767   0.00066   0.00000   0.00188   0.00188   2.06954
    A1        1.97905   0.00005   0.00000   0.00811   0.00804   1.98709
    A2        1.86939  -0.00428   0.00000  -0.02578  -0.02578   1.84361
    A3        1.87735  -0.00369   0.00000  -0.02223  -0.02223   1.85512
    A4        1.90357  -0.00345   0.00000  -0.02078  -0.02078   1.88279
    A5        1.91384  -0.00080   0.00000   0.00507   0.00494   1.91878
    A6        1.90321  -0.00030   0.00000  -0.00515  -0.00512   1.89809
    A7        1.89392   0.00152   0.00000   0.00906   0.00905   1.90297
    A8        1.91717  -0.00062   0.00000  -0.01142  -0.01142   1.90575
    A9        1.90282   0.00003   0.00000   0.00091   0.00092   1.90374
   A10        1.93269   0.00019   0.00000   0.00186   0.00184   1.93454
   A11        1.90397   0.00069   0.00000   0.00479   0.00484   1.90881
   A12        1.93573  -0.00096   0.00000  -0.00807  -0.00806   1.92767
   A13        1.93224   0.00086   0.00000   0.01153   0.01152   1.94376
   A14        1.90856   0.00038   0.00000   0.00366   0.00361   1.91217
   A15        1.87759  -0.00072   0.00000  -0.00835  -0.00836   1.86923
   A16        1.90472  -0.00023   0.00000  -0.00359  -0.00356   1.90116
   A17        1.86926   0.00022   0.00000   0.00459   0.00459   1.87384
   A18        1.96041  -0.00077   0.00000  -0.00155  -0.00155   1.95886
   A19        1.91419   0.00031   0.00000   0.00127   0.00126   1.91544
   A20        1.94375   0.00103   0.00000   0.00509   0.00507   1.94882
   A21        1.88929  -0.00040   0.00000  -0.00271  -0.00269   1.88660
   A22        1.88585  -0.00038   0.00000  -0.00666  -0.00668   1.87917
   A23        1.86567  -0.00003   0.00000   0.00595   0.00595   1.87162
   A24        1.96065   0.00009   0.00000   0.00464   0.00463   1.96528
   A25        1.93156   0.00026   0.00000   0.00267   0.00268   1.93424
   A26        1.89895   0.00071   0.00000  -0.00055  -0.00061   1.89834
   A27        1.90613  -0.00021   0.00000  -0.00326  -0.00328   1.90284
   A28        1.89988  -0.00080   0.00000  -0.00940  -0.00939   1.89048
   A29        1.89787  -0.00006   0.00000  -0.00053  -0.00055   1.89732
   A30        1.91879   0.00004   0.00000   0.00123   0.00123   1.92002
   A31        1.90012   0.00037   0.00000   0.00445   0.00447   1.90459
   A32        1.89645  -0.00012   0.00000  -0.00152  -0.00152   1.89493
   A33        1.98131  -0.00006   0.00000  -0.00079  -0.00078   1.98053
   A34        1.86886  -0.00017   0.00000  -0.00280  -0.00281   1.86604
   A35        1.89060  -0.00048   0.00000  -0.00814  -0.00816   1.88243
   A36        1.89154  -0.00039   0.00000  -0.00264  -0.00264   1.88890
   A37        1.91421  -0.00126   0.00000  -0.00510  -0.00511   1.90910
   A38        1.88642  -0.00012   0.00000  -0.00213  -0.00218   1.88424
   A39        1.93849   0.00060   0.00000   0.00159   0.00154   1.94003
   A40        1.94118   0.00160   0.00000   0.01577   0.01577   1.95695
   A41        1.89252  -0.00034   0.00000  -0.00208  -0.00208   1.89045
   A42        1.99433   0.00281   0.00000   0.01097   0.01097   2.00530
   A43        1.91186  -0.00033   0.00000  -0.00096  -0.00097   1.91090
   A44        1.92113   0.00053   0.00000   0.00622   0.00622   1.92735
   A45        1.90280   0.00015   0.00000  -0.00038  -0.00039   1.90241
   A46        1.92808   0.00004   0.00000   0.00093   0.00092   1.92900
   A47        1.90709  -0.00027   0.00000  -0.00396  -0.00396   1.90313
   A48        1.89254  -0.00011   0.00000  -0.00194  -0.00194   1.89060
   A49        1.88251  -0.00036   0.00000  -0.00314  -0.00315   1.87936
   A50        1.91219  -0.00129   0.00000  -0.01122  -0.01123   1.90096
   A51        1.94874  -0.00015   0.00000  -0.00057  -0.00057   1.94817
   A52        1.88576   0.00032   0.00000   0.00156   0.00150   1.88726
   A53        1.91335   0.00055   0.00000   0.00655   0.00654   1.91989
   A54        1.91987   0.00091   0.00000   0.00671   0.00669   1.92656
   A55        1.82441  -0.00038   0.00000  -0.00147  -0.00147   1.82293
   A56        1.97838   0.00060   0.00000   0.00837   0.00844   1.98682
   A57        1.98730   0.00068   0.00000   0.00977   0.00982   1.99712
   A58        1.95510   0.00033   0.00000   0.00426   0.00426   1.95936
   A59        1.83176  -0.00044   0.00000  -0.00571  -0.00647   1.82530
   A60        1.84122  -0.00072   0.00000  -0.01038  -0.00975   1.83146
   A61        1.85807  -0.00066   0.00000  -0.00912  -0.00929   1.84878
   A62        1.98441   0.00073   0.00000   0.00538   0.00534   1.98975
   A63        1.85084   0.00013   0.00000   0.00247   0.00250   1.85335
   A64        1.88886   0.00109   0.00000   0.01505   0.01507   1.90394
   A65        1.92812  -0.00069   0.00000  -0.00923  -0.00924   1.91888
   A66        1.93403  -0.00106   0.00000  -0.00692  -0.00703   1.92699
   A67        1.87245  -0.00018   0.00000  -0.00670  -0.00681   1.86564
   A68        1.92089   0.00060   0.00000   0.00415   0.00414   1.92503
   A69        1.93894   0.00022   0.00000   0.00119   0.00122   1.94015
   A70        1.95215   0.00026   0.00000   0.00115   0.00114   1.95329
   A71        1.88739  -0.00033   0.00000  -0.00126  -0.00127   1.88612
   A72        1.87705  -0.00042   0.00000  -0.00226  -0.00227   1.87478
   A73        1.88507  -0.00038   0.00000  -0.00328  -0.00329   1.88178
   A74        1.98233   0.00100   0.00000   0.00614   0.00613   1.98846
   A75        1.85184  -0.00016   0.00000  -0.00009  -0.00006   1.85178
   A76        1.88937   0.00117   0.00000   0.01619   0.01620   1.90557
   A77        1.92584  -0.00067   0.00000  -0.00948  -0.00951   1.91633
   A78        1.94180  -0.00132   0.00000  -0.00836  -0.00849   1.93331
   A79        1.86699   0.00002   0.00000  -0.00428  -0.00438   1.86261
   A80        1.92259   0.00074   0.00000   0.00462   0.00462   1.92721
   A81        1.93878  -0.00008   0.00000  -0.00062  -0.00062   1.93816
   A82        1.95134   0.00030   0.00000   0.00175   0.00175   1.95309
   A83        1.88593  -0.00034   0.00000  -0.00199  -0.00199   1.88394
   A84        1.87811  -0.00052   0.00000  -0.00286  -0.00286   1.87525
   A85        1.88470  -0.00015   0.00000  -0.00121  -0.00121   1.88349
   A86        2.03681   0.00265   0.00000   0.01432   0.01430   2.05111
   A87        1.83870  -0.00040   0.00000   0.00244   0.00245   1.84115
   A88        1.85346  -0.00046   0.00000   0.00181   0.00182   1.85528
   A89        1.93678  -0.00099   0.00000  -0.00579  -0.00586   1.93092
   A90        1.93565  -0.00100   0.00000  -0.00594  -0.00600   1.92964
   A91        1.85053   0.00004   0.00000  -0.00824  -0.00829   1.84224
   A92        1.91393   0.00151   0.00000   0.00995   0.00994   1.92387
   A93        1.95399   0.00020   0.00000   0.00070   0.00070   1.95469
   A94        1.95337   0.00013   0.00000   0.00044   0.00043   1.95380
   A95        1.87691  -0.00082   0.00000  -0.00429  -0.00430   1.87261
   A96        1.87511  -0.00075   0.00000  -0.00351  -0.00352   1.87159
   A97        1.88726  -0.00038   0.00000  -0.00381  -0.00381   1.88345
   A98        3.11177  -0.00198   0.00000  -0.22924  -0.22932   2.88245
   A99        3.15268  -0.00087   0.00000  -0.09772  -0.09841   3.05427
    D1       -1.10999   0.00077   0.00000   0.02115   0.02122  -1.08877
    D2        0.98981  -0.00067   0.00000   0.00708   0.00711   0.99692
    D3        3.09648   0.00029   0.00000   0.01172   0.01172   3.10821
    D4        1.12487  -0.00055   0.00000  -0.00596  -0.00597   1.11890
    D5       -0.94938  -0.00039   0.00000  -0.00451  -0.00451  -0.95389
    D6       -2.99155  -0.00043   0.00000  -0.00442  -0.00443  -2.99597
    D7       -2.93302  -0.00023   0.00000  -0.00761  -0.00756  -2.94058
    D8       -0.82983   0.00008   0.00000  -0.00502  -0.00503  -0.83487
    D9        1.28726  -0.00028   0.00000  -0.00720  -0.00724   1.28002
   D10       -3.13669   0.00002   0.00000  -0.01390  -0.01391   3.13258
   D11        1.00713  -0.00094   0.00000  -0.02243  -0.02243   0.98470
   D12       -1.09022  -0.00017   0.00000  -0.01387  -0.01386  -1.10408
   D13        2.66789  -0.00011   0.00000   0.00915   0.00915   2.67705
   D14       -1.53361   0.00079   0.00000   0.01498   0.01497  -1.51863
   D15        0.59396   0.00001   0.00000   0.00804   0.00804   0.60200
   D16        3.08947  -0.00182   0.00000  -0.03104  -0.03103   3.05844
   D17        0.96969  -0.00130   0.00000  -0.02639  -0.02640   0.94330
   D18       -1.09682  -0.00082   0.00000  -0.01936  -0.01936  -1.11618
[...]
 000075,0.00000076,-0.00000118,0.00000057,-0.00000120,-0.00000155,0.000
 00186,-0.00000116,-0.00000254,0.00000550,-0.00000378,0.00000221,-0.000
 00163,-0.00000005,-0.00000059,0.00000104,0.00000102,0.00000340,-0.0000
 0704,0.00000542,-0.00000053,0.00000134,-0.00000141,0.00005511,-0.00000
 191,0.00001062,-0.00003983,0.00002831,-0.00004745,0.00009228,-0.000067
 70,0.00001997,0.00000408,-0.00000362,0.00000259,0.00002406,0.00000318,
 -0.00000058,-0.00001031,0.00001313,-0.00000065,-0.00001497,-0.00001069
 ,-0.00000252,-0.00010746,0.00020889,-0.00016017,-0.00004576,-0.0008592
 0,0.00083010,0.01027920,0.01781908,-0.01386196,-0.00420763,-0.00126732
 ,-0.00475264,0.00157252,0.00162282,-0.00020080,-0.00020035,-0.00016715
 ,0.00031673,-0.00000008,-0.00038387,0.00028814,-0.00030704,0.00009486,
 -0.00069605,-0.00002538,0.00001562,0.00001989,0.00001478,-0.00009066,-
 0.00004272,0.00026132,-0.00025512,0.00065073,-0.00028578,0.00005532,-0
 .00058948,-0.00017857,0.00005540,0.00018135,-0.00007808,0.00003066,-0.
 00005521,0.00003601,-0.00014128,0.00041188,-0.00002352,-0.00005817,0.0
 0000253,0.00027125,-0.00076659,0.00021364,0.07140205,0.10752442,-0.125
 60502,-0.00069897,-0.00110311,0.00067459,-0.00696535,-0.01086395,0.009
 10228,-0.07052510,-0.11100818,0.13181872,-0.00007525,0.00003350,-0.000
 00227,-0.00001565,-0.00002078,0.00000279,-0.00002216,-0.00000980,-0.00
 001410,-0.00003168,0.00000393,-0.00000568,0.00013775,-0.00002403,-0.00
 000905,0.00000098,0.00002494,-0.00000040,0.00002014,0.00000190,0.00000
 496,0.00001792,-0.00000428,0.00000512,0.00004983,-0.00000932,-0.000007
 27,-0.00001359,0.00000255,0.00000994,0.00000126,-0.00000263,0.00000499
 ,-0.00000306,-0.00000089,0.00000099,-0.00000057,-0.00000112,0.00000185
 ,-0.00000702,-0.00000242,0.00000356,0.00000482,0.00000632,-0.00000234,
 0.00000375,0.00000315,0.00000144,0.00000679,-0.00000166,0.00000183,0.0
 0001009,-0.00000613,0.00000338,-0.00000684,0.00000283,0.00000166,0.000
 00071,-0.00000393,-0.00000393,-0.00001504,0.00000885,-0.00000505,0.000
 00694,-0.00000239,-0.00000005,-0.00013549,-0.00002285,-0.00001097,0.00
 008626,-0.00005593,0.00010606,-0.00012913,0.00021645,-0.00010310,0.000
 01466,-0.00000340,-0.00001533,-0.00007196,-0.00002496,0.00001341,-0.00
 000748,-0.00001371,0.00003080,0.00000046,-0.00002288,0.00001230,-0.000
 26659,-0.00006418,0.00031565,0.00004837,0.00001703,-0.00117312,-0.0049
 3659,0.00079903,0.00145293,-0.00030599,-0.00024454,0.00031208,0.000238
 68,0.00015865,-0.00011687,-0.00000306,0.00002743,-0.00001969,0.0003381
 7,0.00006645,-0.00021653,0.00001971,0.00002133,-0.00008112,0.00007707,
 -0.00006517,0.00010503,-0.00001582,-0.00001684,0.00002467,-0.00015820,
 0.00030497,0.00028701,0.00007832,0.00000108,-0.00011771,0.00016503,-0.
 00006247,0.00000995,0.00028813,-0.00016007,-0.00011756,-0.00000407,-0.
 00005419,0.00002307,0.00003485,0.00006237,0.00000663,-0.00001552,-0.00
 002058,0.00005403,-0.01575043,0.00002018,-0.03137843,-0.07514344,-0.00
 249272,-0.08331603,0.00155804,0.00015735,0.00013598,0.00138575,-0.0005
 8020,0.00004296,0.08452811,0.00001048,-0.00000750,0.00000069,0.0000023
 7,-0.00000026,0.00000040,0.00000280,-0.00000002,0.00000200,0.00000428,
 -0.00000150,0.00000076,-0.00001820,0.00000690,-0.00000009,-0.00000037,
 -0.00000090,-0.00000046,-0.00000249,0.00000035,-0.00000100,-0.00000215
 ,0.00000097,-0.00000052,-0.00000709,0.00000211,0.00000055,0.00000142,-
 0.00000064,-0.00000067,-0.00000014,-0.00000001,-0.00000025,0.00000020,
 0.00000002,0.00000010,0.00000006,0.00000016,-0.00000009,0.00000093,0.0
 0000019,-0.00000025,-0.00000077,-0.00000005,-0.00000008,-0.00000040,0.
 00000018,-0.00000032,-0.00000059,0.00000074,-0.00000018,-0.00000080,0.
 00000179,-0.00000052,0.00000098,-0.00000049,-0.00000017,-0.00000042,0.
 00000045,0.00000048,0.00000135,-0.00000233,0.00000098,-0.00000036,0.00
 000057,-0.00000004,0.00001803,0.00000076,0.00000282,-0.00001100,0.0000
 0896,-0.00001478,0.00001484,-0.00002744,0.00000694,-0.00000114,-0.0000
 0018,0.00000225,0.00000747,0.00000289,-0.00000040,0.00000034,0.0000044
 5,-0.00000098,-0.00000160,0.00000103,-0.00000232,0.00003172,-0.0000134
 8,-0.00004290,0.00000836,0.00009522,0.00017984,0.00083237,-0.00039645,
 -0.00017101,-0.00013524,0.00019440,0.00014960,0.00018233,0.00000192,-0
 .00009447,-0.00001319,0.00002592,-0.00003469,0.00017611,-0.00003903,-0
 .00024518,-0.00002059,0.00000414,-0.00000291,0.00000243,-0.00000895,0.
 00008118,0.00000287,0.00000394,0.00002754,0.00023062,0.00003941,-0.000
 19385,-0.00006091,0.00010598,0.00003414,-0.00020069,0.00005142,0.00001
 465,-0.00027946,0.00003916,0.00031861,0.00000745,0.00001274,-0.0000129
 1,-0.00003986,-0.00003491,-0.00000187,0.00005338,0.00005193,-0.0000687
 4,0.00250130,-0.00020347,0.00505322,-0.00243158,-0.04939273,-0.0051374
 7,-0.00016573,0.00009204,0.00046213,-0.00032510,0.00011868,-0.00043375
 ,0.00128655,0.04801682,-0.00003444,0.00001669,-0.00000034,-0.00000957,
 -0.00000660,0.00000265,-0.00001084,-0.00000415,-0.00000585,-0.00001628
 ,0.00000259,-0.00000208,0.00006152,-0.00001281,-0.00000412,0.00000213,
 0.00000879,-0.00000135,0.00000936,0.00000116,0.00000213,0.00000949,-0.
 00000254,0.00000166,0.00002314,-0.00000434,-0.00000364,-0.00000618,0.0
 0000120,0.00000483,0.00000061,-0.00000124,0.00000253,-0.00000154,-0.00
 000052,0.00000072,-0.00000042,-0.00000064,0.00000102,-0.00000316,-0.00
 000120,0.00000182,0.00000388,0.00000242,-0.00000179,0.00000217,0.00000
 155,0.00000057,0.00000362,-0.00000091,0.00000061,0.00000523,-0.0000028
 3,0.00000100,-0.00000337,0.00000132,0.00000104,0.00000026,-0.00000174,
 -0.00000181,-0.00000778,0.00000415,-0.00000172,0.00000391,-0.00000115,
 -0.00000032,-0.00006194,-0.00000847,-0.00000473,0.00004027,-0.00000821
 ,0.00002342,-0.00000417,0.00004128,-0.00004242,0.00000247,0.00000081,-
 0.00000537,-0.00002028,-0.00000758,0.00000412,0.00000020,-0.00000710,0
 .00000974,0.00000032,-0.00000794,0.00000861,-0.00005852,0.00000991,0.0
 0001731,0.00010228,-0.00001664,0.00002843,0.00127038,-0.00010750,0.001
 27343,0.00014457,-0.00007537,-0.00002508,-0.00014955,-0.00000178,0.000
 07872,-0.00001886,0.00000737,0.00000038,-0.00019272,-0.00009031,0.0002
 0306,0.00000912,0.00000468,-0.00000050,-0.00001987,0.00001232,-0.00006
 994,0.00000425,-0.00000545,-0.00000928,0.00015080,0.00002980,0.0000456
 1,-0.00005063,0.00004849,-0.00003632,-0.00011550,0.00001828,-0.0000083
 3,-0.00015057,0.00012841,0.00017846,0.00000128,-0.00002265,-0.00000901
 ,-0.00002177,-0.00003539,0.00001570,0.00001850,0.00002839,-0.00002176,
 0.00012399,0.00017654,0.00220264,-0.08271490,-0.00524565,-0.28531915,-
 0.00031957,0.00034877,0.00049589,-0.00040567,-0.00017635,0.00059556,0.
 09060748,0.00587123,0.30717944,-0.00001058,0.00000891,-0.00000324,-0.0
 0000250,0.00000148,-0.00000173,-0.00000323,0.00000002,-0.00000372,-0.0
 0000402,0.00000147,-0.00000204,0.00001993,-0.00000983,0.00000261,-0.00
 000036,-0.00000039,0.00000228,0.00000283,-0.00000026,0.00000189,0.0000
 0180,-0.00000139,0.00000168,0.00000657,-0.00000191,0.00000064,-0.00000
 113,0.00000113,-0.00000019,0.00000018,0.00000021,-0.00000044,0.0000001
 1,0.00000020,-0.00000056,-0.00000004,-0.00000008,-0.00000040,-0.000000
 53,0.00000022,-0.00000034,0.00000057,-0.00000014,0.00000057,0.00000026
 ,-0.00000034,0.00000084,0.00000041,-0.00000067,0.00000094,0.00000084,-
 0.00000277,0.00000328,-0.00000037,0.00000063,-0.00000034,0.00000004,-0
 .00000050,-0.00000018,-0.00000088,0.00000345,-0.00000416,-0.00000044,-
 0.00000066,0.00000119,-0.00002573,-0.00000020,-0.00001000,0.00001630,-
 0.00000171,0.00000891,-0.00000946,0.00001074,0.00001965,-0.00000239,0.
 00000085,-0.00000007,-0.00000061,0.00000063,-0.00000196,0.00000825,-0.
 00000193,-0.00000653,0.00000321,0.00000685,-0.00000021,0.00002687,-0.0
 0005326,0.00000626,0.00002420,0.00023860,-0.00018589,0.00009483,-0.001
 31078,0.00195071,-0.00020065,-0.00005572,0.00023229,0.00043412,0.00016
 196,-0.00027542,-0.00014198,0.00019408,-0.00004524,0.00044352,0.000253
 07,-0.00107598,-0.00003795,-0.00000175,-0.00004687,0.00005520,-0.00006
 056,0.00021106,0.00001406,0.00000620,0.00009625,-0.00005928,0.00015988
 ,-0.00037461,0.00007427,0.00000646,0.00011703,0.00005581,-0.00010115,-
 0.00006197,0.00001176,-0.00013216,-0.00002194,0.00000359,0.00002655,-0
 .00006403,0.00001759,0.00003207,0.00002436,-0.00006741,0.00008738,-0.0
 0001377,-0.01633775,-0.02423845,0.01678325,-0.10865886,-0.08934736,0.0
 6493079,0.00129291,0.00029830,0.00002656,-0.00651450,0.00184510,-0.000
 46406,0.00567804,0.00880884,-0.00491047,0.11994398,-0.00000985,0.00000
 703,-0.00000257,-0.00000300,0.00000191,-0.00000119,-0.00000344,-0.0000
 0043,-0.00000378,-0.00000482,0.00000124,-0.00000200,0.00001700,-0.0000
 0706,0.00000247,0.00000043,-0.00000100,0.00000156,0.00000279,0.0000003
 9,0.00000209,0.00000254,-0.00000142,0.00000149,0.00000637,-0.00000161,
 0.00000033,-0.00000100,0.00000078,-0.00000009,0.00000022,0.00000021,-0
 .00000024,0.00000004,0.00000007,-0.00000047,-0.00000008,-0.00000005,-0
 .00000021,-0.00000059,0.00000007,-0.00000015,0.00000110,-0.00000031,0.
 00000045,0.00000052,-0.00000006,0.00000097,0.00000092,-0.00000040,0.00
 000101,0.00000170,-0.00000209,0.00000299,-0.00000054,0.00000050,-0.000
 00019,-0.00000016,-0.00000053,-0.00000039,-0.00000199,0.00000275,-0.00
 000368,0.00000051,-0.00000054,0.00000103,-0.00001814,-0.00000040,-0.00
 000731,0.00001037,-0.00000107,0.00001204,-0.00000922,0.00000915,0.0000
 0159,0.00000014,-0.00000047,-0.00000084,-0.00000215,-0.00000097,-0.000
 00121,-0.00000077,-0.00000039,-0.00000201,0.00000207,0.00000012,-0.000
 00006,-0.00000933,-0.00000448,0.00002801,-0.00001555,0.00001523,-0.000
 16342,-0.00038552,-0.00017081,0.00075076,-0.00046788,0.00016620,0.0005
 1540,0.00034980,-0.00002405,-0.00016125,0.00007245,-0.00014324,-0.0000
 4876,0.00061965,-0.00005851,0.00009534,-0.00002562,0.00001562,-0.00002
 740,0.00005486,-0.00002330,0.00011413,-0.00002740,0.00000139,-0.000008
 72,-0.00013919,0.00007531,-0.00010725,0.00006129,-0.00000133,0.0002257
 3,-0.00001024,-0.00000318,-0.00003844,0.00004167,-0.00020651,0.0000502
 1,-0.00000639,0.00002014,-0.00003252,-0.00002544,0.00003342,-0.0001030
 8,0.00011072,0.00012154,-0.00011723,0.00282339,0.00575095,-0.00470025,
 -0.09006048,-0.18539754,0.09686341,-0.00054432,0.00064928,-0.00025382,
 0.00192812,0.00096714,-0.00007803,0.00162054,0.00093166,-0.00098861,0.
 09791856,0.19716676,0.00002796,-0.00001615,0.00000201,0.00000735,0.000
 00262,-0.00000046,0.00000863,0.00000224,0.00000588,0.00001288,-0.00000
 281,0.00000249,-0.00004923,0.00001390,0.00000037,-0.00000148,-0.000004
 83,-0.00000025,-0.00000741,-0.00000044,-0.00000274,-0.00000722,0.00000
 246,-0.00000184,-0.00001867,0.00000435,0.00000172,0.00000446,-0.000001
 42,-0.00000267,-0.00000050,0.00000056,-0.00000130,0.00000086,0.0000002
 0,-0.00000005,0.00000028,0.00000047,-0.00000040,0.00000237,0.00000057,
 -0.00000091,-0.00000278,-0.00000119,0.00000063,-0.00000155,-0.00000060
 ,-0.00000093,-0.00000254,0.00000117,-0.00000092,-0.00000382,0.00000370
 ,-0.00000257,0.00000243,-0.00000119,-0.00000047,-0.00000031,0.00000142
 ,0.00000132,0.00000550,-0.00000505,0.00000357,-0.00000221,0.00000128,-
 0.00000048,0.00005035,0.00000539,0.00000749,-0.00002979,0.00000772,-0.
 00002213,0.00000686,-0.00003462,0.00002328,-0.00000182,-0.00000025,0.0
 0000409,0.00001361,0.00000549,-0.00000171,-0.00000032,0.00000637,-0.00
 000427,-0.00000092,0.00000498,-0.00000597,0.00009040,-0.00002700,-0.00
 002026,-0.00004392,0.00006367,0.00005381,-0.00036970,-0.00050764,0.000
 18460,-0.00016623,0.00024424,-0.00013024,-0.00007711,-0.00018052,-0.00
 006698,0.00016013,-0.00011275,0.00005626,-0.00060059,0.00059742,-0.001
 07504,0.00001476,-0.00002032,0.00006522,0.00000186,0.00000121,0.000014
 45,-0.00001313,0.00001370,-0.00001487,0.00001583,-0.00000089,0.0000770
 8,-0.00004074,-0.00000589,0.00007758,0.00001158,0.00002961,-0.00000979
 ,0.00003718,-0.00005871,0.00004240,0.00000299,0.00002153,-0.00000546,-
 0.00000358,0.00000324,-0.00004778,0.00006058,0.00005503,-0.00004628,-0
 .00053908,-0.00199402,0.00057915,0.06556882,0.09698886,-0.12009243,0.0
 0032838,0.00008515,-0.00014510,-0.00051483,-0.00030005,0.00101543,0.01
 552937,0.02340310,-0.01536593,-0.07145187,-0.10825617,0.12710844,-0.00
 000255,-0.00000320,-0.00000160,0.00000310,-0.00000736,-0.00000189,-0.0
 0000072,-0.00000258,-0.00000201,-0.00000031,-0.00000173,-0.00000115,0.
 00000695,0.00000409,0.00000072,-0.00000232,0.00000642,0.00000137,0.000
 00097,0.00000067,0.00000081,0.00000061,0.00000089,0.00000115,0.0000011
 3,0.00000054,0.00000039,-0.00000092,-0.00000012,0.00000046,0.00000006,
 -0.00000020,0.00000008,0.,-0.00000004,-0.00000023,0.00000003,0.0000001
 4,-0.00000005,-0.00000011,0.00000003,-0.00000002,-0.00000232,0.0000016
 5,0.00000078,-0.00000003,0.00000073,0.00000022,0.00000053,0.00000066,0
 .00000056,0.00000117,0.00000064,0.00000138,0.00000003,-0.00000011,-0.0
 0000013,-0.00000045,-0.00000045,-0.00000020,-0.00000135,-0.00000063,-0
 .00000128,0.00000068,0.00000004,0.00000029,-0.00001171,-0.00000682,-0.
 00000610,0.00000825,0.00000716,0.00000012,0.00002359,0.00001467,0.0000
 1043,0.00000223,-0.00000208,-0.00000063,-0.00000082,-0.00000076,0.0000
 0044,0.00000076,-0.00000004,0.00000087,-0.00000438,-0.00000658,0.00000
 098,-0.00002062,0.00003616,-0.00001018,-0.00003899,-0.00026367,-0.0001
 2047,0.00050769,0.00126264,0.00150408,-0.00007540,-0.00010234,-0.00024
 919,0.00007651,0.00006226,-0.00002307,-0.00006559,-0.00010898,0.000093
 62,0.00003777,0.00002537,-0.00005435,-0.00001097,-0.00000418,-0.000032
 70,0.00000661,-0.00000700,0.00001515,0.00000135,-0.00000011,-0.0000286
 8,0.00000289,0.00008785,-0.00022397,0.00002739,-0.00008455,-0.00046720
 ,0.00026452,-0.00010208,0.00003369,0.00043499,-0.00049990,-0.00088211,
 0.00002847,-0.00001629,0.00010404,0.00009590,0.00007908,0.00017860,-0.
 00028492,-0.00029066,0.00026597,-0.00766462,0.03102727,0.01335816,-0.0
 6303848,0.05294461,0.02390404,-0.00691604,0.00059204,-0.00040077,0.001
 35910,-0.00047713,0.00014778,0.00233399,-0.01047003,-0.00329265,0.0038
 4860,-0.01387468,-0.00801406,0.06906776,0.00001081,-0.00000065,0.00000
 288,-0.00000028,0.00000819,0.00000206,0.00000417,0.00000440,0.00000511
 ,0.00000500,0.00000142,0.00000252,-0.00002086,-0.00000044,-0.00000140,
 0.00000177,-0.00000761,-0.00000168,-0.00000376,-0.00000176,-0.00000249
 ,-0.00000345,-0.00000004,-0.00000204,-0.00000658,0.00000023,-0.0000000
 3,0.00000187,-0.00000031,-0.00000084,-0.00000016,0.00000033,-0.0000003
 4,0.00000021,0.00000016,0.00000035,0.00000010,-0.00000010,-0.00000008,
 0.00000070,0.00000017,-0.00000022,0.00000121,-0.00000225,-0.00000076,-
 0.00000068,-0.00000143,-0.00000090,-0.00000178,-0.00000079,-0.00000125
 ,-0.00000287,0.00000006,-0.00000262,0.00000055,-0.00000021,0.,0.000000
 74,0.00000091,0.00000065,0.00000385,-0.00000029,0.00000281,-0.00000198
 ,0.00000011,-0.00000057,0.00002511,0.00000744,0.00000953,-0.00001653,-
 0.00000083,-0.00001497,0.00000209,-0.00002540,0.00000016,-0.00000227,0
 .00000206,0.00000176,0.00000621,0.00000194,-0.00000031,-0.00000040,0.0
 0000011,0.00000068,0.00000128,0.00000485,-0.00000212,0.00001415,-0.000
 00281,-0.00003189,0.00002014,0.00012382,0.00022912,0.00014908,-0.00082
 962,-0.00116139,0.00014766,0.00009069,0.00034693,-0.00002755,-0.000005
 14,-0.00004118,-0.00011365,0.00018025,-0.00007199,0.00000214,-0.000170
 32,-0.00008213,0.00000512,-0.00000320,0.00001940,0.00000353,0.00000374
 ,0.00001125,0.00002270,0.00001153,0.00006081,0.00042770,-0.00015481,-0
 .00060532,-0.00017521,0.00019576,-0.00009647,-0.00034902,0.00008540,0.
 00007300,-0.00084909,0.00033120,0.00015180,0.00000325,0.00001139,-0.00
 002876,-0.00003311,-0.00006694,0.00006362,0.00007309,0.00010162,0.0000
 2453,0.00166181,-0.00215127,-0.00026846,0.05357699,-0.26074773,-0.0917
 9321,0.00049907,0.00145989,0.00016170,0.00036168,0.00062045,0.00008679
 ,-0.00085330,0.00031244,0.00007954,0.00525014,-0.01988708,-0.01003914,
 -0.05982138,0.28050049,0.00002221,-0.00000686,0.00000091,0.00000420,0.
 00001002,-0.00000119,0.00000728,0.00000489,0.00000477,0.00001021,-0.00
 000008,0.00000198,-0.00004105,0.00000373,0.00000255,-0.00000012,-0.000
 01051,0.00000069,-0.00000650,-0.00000151,-0.00000179,-0.00000638,0.000
 00084,-0.00000170,-0.00001454,0.00000196,0.00000213,0.00000451,-0.0000
 0060,-0.00000336,-0.00000041,0.00000116,-0.00000188,0.00000109,0.00000
 039,-0.00000044,0.00000025,0.00000033,-0.00000069,0.00000199,0.0000007
 5,-0.00000121,-0.00000115,-0.00000300,0.00000096,-0.00000141,-0.000001
 78,-0.00000046,-0.00000270,-0.00000010,-0.00000077,-0.00000398,0.00000
 094,-0.00000139,0.00000193,-0.00000071,-0.00000057,0.00000027,0.000001
 34,0.00000122,0.00000579,-0.00000161,0.00000167,-0.00000300,0.00000054
 ,0.00000002,0.00004227,0.00000983,0.00000347,-0.00002566,0.00000739,-0
 .00001928,0.00001314,-0.00004030,0.00003313,-0.00000341,0.00000102,0.0
 0000350,0.00001655,0.00000541,-0.00000414,-0.00000005,0.00000220,-0.00
 000877,0.00000300,0.00000837,-0.00000476,0.00008480,0.00001828,-0.0000
 2256,-0.00007644,-0.00007170,0.00003466,-0.00029727,0.00064365,0.00015
 829,-0.00000716,0.00000078,-0.00009786,-0.00000826,-0.00003949,-0.0000
 0302,0.00006682,-0.00008084,0.00002273,0.00002588,0.00009496,0.0000436
 1,-0.00000245,-0.00000957,0.00001446,-0.00000811,0.00000326,-0.0000020
 9,-0.00000838,0.00000500,-0.00002112,-0.00039289,-0.00020188,-0.000015
 92,0.00005233,-0.00013033,0.00023159,0.00007981,0.00019865,0.00003294,
 -0.00025142,-0.00050966,-0.00105961,-0.00001655,0.00002837,-0.00004192
 ,0.00001596,0.00006679,-0.00007448,0.00003355,0.00003425,-0.00009486,0
 .00023847,0.00178915,0.00008308,0.02412977,-0.09204402,-0.09024663,-0.
 00028254,0.00031799,0.00089082,0.00020141,-0.00031329,-0.00014340,0.00
 760467,-0.02915033,-0.01144024,-0.00539483,0.01644036,0.00774299,-0.02
 581151,0.10291558,0.09400390\\-0.00000452,0.00000209,-0.00000584,-0.00
 000291,-0.00000146,0.00000303,-0.00000174,-0.00000558,-0.00000151,-0.0
 0000051,0.00000147,-0.00000617,-0.00000146,-0.00001422,0.00000208,-0.0
 0000282,0.00000259,0.00000382,0.00000400,0.00000552,0.00000415,-0.0000
 0345,-0.00000326,-0.00000238,0.00000459,0.00000591,0.00000113,0.000001
 78,0.00000440,-0.00000113,-0.00000020,-0.00000222,-0.00000021,0.000000
 19,0.00000009,0.00000027,0.00000083,0.00000007,0.00000207,0.00000180,0
 .00000208,-0.00000014,0.00000339,0.00000076,0.00000198,0.00000101,0.00
 000126,0.00000027,0.00000179,-0.00000235,0.00000083,-0.00000549,-0.000
 00240,-0.00000419,0.00000058,0.00000222,-0.00000286,0.00000118,0.00000
 106,-0.00000223,0.00000539,-0.00000007,-0.00000151,-0.00000346,-0.0000
 0078,-0.00000210,0.00000400,0.00001532,0.00000269,-0.00000815,-0.00001
 223,-0.00000462,0.00000570,-0.00000164,-0.00000223,0.00000108,0.000004
 13,-0.00000012,0.00000105,0.00000256,-0.00000076,-0.00000119,0.0000038
 0,0.00000067,-0.00000038,0.00000131,0.00000237,-0.00000084,-0.00000136
 ,-0.00000144,-0.00000080,0.00000562,0.00000430,-0.00000956,-0.00000628
 ,-0.00000759,0.00000490,0.00000353,-0.00000338,-0.00000082,-0.00000085
 ,-0.00000078,-0.00000087,-0.00000165,-0.00000008,-0.00000285,-0.000003
 00,-0.00000036,0.00000060,-0.00000291,-0.00000116,0.00000100,-0.000002
 49,-0.00000029,0.00000003,-0.00000294,-0.00000007,0.00000756,-0.000001
 53,-0.00000152,-0.00000317,-0.00000271,0.00000386,0.00000073,-0.000000
 98,0.00000121,-0.00000208,-0.00000099,0.00000312,0.00000051,-0.0000004
 2,0.00000285,0.00000052,0.00000055,0.00000195,-0.00000007,0.00000027,0
 .00000202,0.00000418,0.00000358,0.00001057,-0.00000041,0.00000149,-0.0
 0000276,-0.00000091,0.00000057,-0.00000171,0.00000122,0.00000007,0.,-0
 .00000060,0.00000082,0.00000091,-0.00000057,0.00000047,0.00000132,0.00
 000021,0.00000069,0.00000171\\\@


 The most important thing in communication is to hear what isn't being said.
 -- Peter F. Drucker
 Job cpu time:       0 days  2 hours 20 minutes 56.0 seconds.
 File lengths (MBytes):  RWF=   1195 Int=      0 D2E=      0 Chk=     16 Scr=      1
 Normal termination of Gaussian 09 at Mon Apr 17 10:44:39 2023.
