 Entering Gaussian System, Link 0=g09
 Input=AF9-helio.com
 Output=AF9-helio.log
 Initial command:
 /home/scr/programs/g09/l1.exe "/home/scr/helius/Gau-7370.inp" -scrdir="/home/scr/helius/"
 Entering Link 1 = /home/scr/programs/g09/l1.exe PID=      7372.
  
 Copyright (c) 1988,1990,1992,1993,1995,1998,2003,2009,2013,
            Gaussian, Inc.  All Rights Reserved.
  
 This is part of the Gaussian(R) 09 program.  It is based on
 the Gaussian(R) 03 system (copyright 2003, Gaussian, Inc.),
 the Gaussian(R) 98 system (copyright 1998, Gaussian, Inc.),
 the Gaussian(R) 94 system (copyright 1995, Gaussian, Inc.),
 the Gaussian 92(TM) system (copyright 1992, Gaussian, Inc.),
 the Gaussian 90(TM) system (copyright 1990, Gaussian, Inc.),
 the Gaussian 88(TM) system (copyright 1988, Gaussian, Inc.),
 the Gaussian 86(TM) system (copyright 1986, Carnegie Mellon
 University), and the Gaussian 82(TM) system (copyright 1983,
 Carnegie Mellon University). Gaussian is a federally registered
 trademark of Gaussian, Inc.
  
 This software contains proprietary and confidential information,
 including trade secrets, belonging to Gaussian, Inc.
  
 This software is provided under written license and may be
 used, copied, transmitted, or stored only in accord with that
 written license.
  
 The following legend is applicable only to US Government
 contracts under FAR:
  
                    RESTRICTED RIGHTS LEGEND
  
 Use, reproduction and disclosure by the US Government is
 subject to restrictions as set forth in subparagraphs (a)
 and (c) of the Commercial Computer Software - Restricted
 Rights clause in FAR 52.227-19.
  
 Gaussian, Inc.
 340 Quinnipiac St., Bldg. 40, Wallingford CT 06492
  
  
 ---------------------------------------------------------------
 Warning -- This program may not be used in any manner that
 competes with the business of Gaussian, Inc. or will provide
 assistance to any competitor of Gaussian, Inc.  The licensee
 of this program is prohibited from giving any competitor of
 Gaussian, Inc. access to this program.  By using this program,
 the user acknowledges that Gaussian, Inc. is engaged in the
 business of creating and licensing software in the field of
 computational chemistry and represents and warrants to the
 licensee that it is not a competitor of Gaussian, Inc. and that
 it will not use this program in any manner prohibited above.
 ---------------------------------------------------------------
  

 Cite this work as:
 Gaussian 09, Revision D.01,
 M. J. Frisch, G. W. Trucks, H. B. Schlegel, G. E. Scuseria, 
 M. A. Robb, J. R. Cheeseman, G. Scalmani, V. Barone, B. Mennucci, 
 G. A. Petersson, H. Nakatsuji, M. Caricato, X. Li, H. P. Hratchian, 
 A. F. Izmaylov, J. Bloino, G. Zheng, J. L. Sonnenberg, M. Hada, 
 M. Ehara, K. Toyota, R. Fukuda, J. Hasegawa, M. Ishida, T. Nakajima, 
 Y. Honda, O. Kitao, H. Nakai, T. Vreven, J. A. Montgomery, Jr., 
 J. E. Peralta, F. Ogliaro, M. Bearpark, J. J. Heyd, E. Brothers, 
 K. N. Kudin, V. N. Staroverov, T. Keith, R. Kobayashi, J. Normand, 
 K. Raghavachari, A. Rendell, J. C. Burant, S. S. Iyengar, J. Tomasi, 
 M. Cossi, N. Rega, J. M. Millam, M. Klene, J. E. Knox, J. B. Cross, 
 V. Bakken, C. Adamo, J. Jaramillo, R. Gomperts, R. E. Stratmann, 
 O. Yazyev, A. J. Austin, R. Cammi, C. Pomelli, J. W. Ochterski, 
 R. L. Martin, K. Morokuma, V. G. Zakrzewski, G. A. Voth, 
 P. Salvador, J. J. Dannenberg, S. Dapprich, A. D. Daniels, 
 O. Farkas, J. B. Foresman, J. V. Ortiz, J. Cioslowski, 
 and D. J. Fox, Gaussian, Inc., Wallingford CT, 2013.
 
 ******************************************
 Gaussian 09:  EM64L-G09RevD.01 24-Apr-2013
                19-Apr-2023 
 ******************************************
 %mem=30000MB
 %nprocshared=8
 Will use up to    8 processors via shared memory.
 ----------------------------------------
 # opt freq=noraman b3lyp/gen pseudo=read
 ----------------------------------------
 1/14=-1,18=20,19=15,26=3,38=1/1,3;
 2/9=110,12=2,17=6,18=5,40=1/2;
 3/5=7,11=2,16=1,17=8,25=1,30=1,71=1,74=-5/1,2,3;
 4//1;
 5/5=2,38=5/2;
 6/7=2,8=2,9=2,10=2,28=1/1;
 7//1,2,3,16;
 1/14=-1,18=20,19=15,26=3/3(2);
 2/9=110/2;
 99//99;
 2/9=110/2;
 3/5=7,6=1,11=2,16=1,17=8,25=1,30=1,71=1,74=-5,82=7/1,2,3;
 4/5=5,16=3,69=1/1;
 5/5=2,38=5/2;
 7//1,2,3,16;
 1/14=-1,18=20,19=15,26=3/3(-5);
 2/9=110/2;
 6/7=2,8=2,9=2,10=2,19=2,28=1/1;
 99/9=1/99;
 --
 af
 --
 Symbolic Z-matrix:
 Charge =  0 Multiplicity = 1
 Au                    0.        0.        0. 
 S                     0.        0.        2.35012 
 P                     0.00035   0.       -2.38992 
 C                    -0.53016  -1.63183  -2.99662 
 C                    -1.9503   -1.93367  -2.48305 
 C                    -1.14755   1.27537  -2.99661 
 C                    -0.69855   2.65612  -2.48328 
 C                     1.67887   0.35646  -2.99655 
 C                     1.67894   0.35646  -4.53656 
 H                    -0.53034  -1.63171  -4.06662 
 H                     0.14484  -2.3816   -2.64013 
 H                    -2.26219  -2.89301  -2.83983 
 H                    -2.62533  -1.18385  -2.83942 
 H                    -1.95006  -1.93388  -1.41304 
 H                    -1.14758   1.27538  -4.0666 
 H                    -2.13437   1.06584  -2.63992 
 H                    -1.37342   3.40596  -2.83992 
 H                     0.28817   2.86567  -2.84001 
 H                    -0.69843   2.65606  -1.41323 
 H                     2.35374  -0.39334  -2.63987 
 H                     1.99075   1.31584  -2.63988 
 H                     1.36713  -0.60293  -4.89322 
 H                     2.66573   0.5661   -4.89319 
 H                     1.00401   1.10622  -4.89324 
 C                     1.6416    0.34789   2.94387 
 H                     1.95411   1.30707   2.58712 
 H                     1.64125   0.34805   4.01387 
 H                     2.31623  -0.40233   2.58758 
 

 GradGradGradGradGradGradGradGradGradGradGradGradGradGradGradGradGradGrad
 Berny optimization.
 Initialization pass.
                           ----------------------------
                           !    Initial Parameters    !
                           ! (Angstroms and Degrees)  !
 --------------------------                            --------------------------
 ! Name  Definition              Value          Derivative Info.                !
 --------------------------------------------------------------------------------
 ! R1    R(1,2)                  2.3501         estimate D2E/DX2                !
 ! R2    R(1,3)                  2.3899         estimate D2E/DX2                !
 ! R3    R(2,25)                 1.78           estimate D2E/DX2                !
 ! R4    R(3,4)                  1.82           estimate D2E/DX2                !
 ! R5    R(3,6)                  1.82           estimate D2E/DX2                !
 ! R6    R(3,8)                  1.82           estimate D2E/DX2                !
 ! R7    R(4,5)                  1.54           estimate D2E/DX2                !
 ! R8    R(4,10)                 1.07           estimate D2E/DX2                !
 ! R9    R(4,11)                 1.07           estimate D2E/DX2                !
 ! R10   R(5,12)                 1.07           estimate D2E/DX2                !
 ! R11   R(5,13)                 1.07           estimate D2E/DX2                !
 ! R12   R(5,14)                 1.07           estimate D2E/DX2                !
 ! R13   R(6,7)                  1.54           estimate D2E/DX2                !
 ! R14   R(6,15)                 1.07           estimate D2E/DX2                !
 ! R15   R(6,16)                 1.07           estimate D2E/DX2                !
 ! R16   R(7,17)                 1.07           estimate D2E/DX2                !
 ! R17   R(7,18)                 1.0699         estimate D2E/DX2                !
 ! R18   R(7,19)                 1.07           estimate D2E/DX2                !
 ! R19   R(8,9)                  1.54           estimate D2E/DX2                !
 ! R20   R(8,20)                 1.07           estimate D2E/DX2                !
 ! R21   R(8,21)                 1.07           estimate D2E/DX2                !
 ! R22   R(9,22)                 1.07           estimate D2E/DX2                !
 ! R23   R(9,23)                 1.07           estimate D2E/DX2                !
 ! R24   R(9,24)                 1.07           estimate D2E/DX2                !
 ! R25   R(25,26)                1.07           estimate D2E/DX2                !
 ! R26   R(25,27)                1.07           estimate D2E/DX2                !
 ! R27   R(25,28)                1.07           estimate D2E/DX2                !
 ! A1    A(1,2,25)             109.4854         estimate D2E/DX2                !
 ! A2    A(1,3,4)              109.4698         estimate D2E/DX2                !
 ! A3    A(1,3,6)              109.4665         estimate D2E/DX2                !
 ! A4    A(1,3,8)              109.478          estimate D2E/DX2                !
 ! A5    A(4,3,6)              109.4716         estimate D2E/DX2                !
 ! A6    A(4,3,8)              109.4706         estimate D2E/DX2                !
 ! A7    A(6,3,8)              109.4709         estimate D2E/DX2                !
 ! A8    A(3,4,5)              109.4733         estimate D2E/DX2                !
 ! A9    A(3,4,10)             109.4693         estimate D2E/DX2                !
 ! A10   A(3,4,11)             109.471          estimate D2E/DX2                !
 ! A11   A(5,4,10)             109.4724         estimate D2E/DX2                !
 ! A12   A(5,4,11)             109.469          estimate D2E/DX2                !
 ! A13   A(10,4,11)            109.4723         estimate D2E/DX2                !
 ! A14   A(4,5,12)             109.4708         estimate D2E/DX2                !
 ! A15   A(4,5,13)             109.4719         estimate D2E/DX2                !
 ! A16   A(4,5,14)             109.4702         estimate D2E/DX2                !
 ! A17   A(12,5,13)            109.4718         estimate D2E/DX2                !
 ! A18   A(12,5,14)            109.4711         estimate D2E/DX2                !
 ! A19   A(13,5,14)            109.4715         estimate D2E/DX2                !
 ! A20   A(3,6,7)              109.4687         estimate D2E/DX2                !
 ! A21   A(3,6,15)             109.4732         estimate D2E/DX2                !
 ! A22   A(3,6,16)             109.4712         estimate D2E/DX2                !
 ! A23   A(7,6,15)             109.4714         estimate D2E/DX2                !
 ! A24   A(7,6,16)             109.4725         estimate D2E/DX2                !
 ! A25   A(15,6,16)            109.4704         estimate D2E/DX2                !
 ! A26   A(6,7,17)             109.4706         estimate D2E/DX2                !
 ! A27   A(6,7,18)             109.4719         estimate D2E/DX2                !
 ! A28   A(6,7,19)             109.4699         estimate D2E/DX2                !
 ! A29   A(17,7,18)            109.4682         estimate D2E/DX2                !
 ! A30   A(17,7,19)            109.476          estimate D2E/DX2                !
 ! A31   A(18,7,19)            109.4708         estimate D2E/DX2                !
 ! A32   A(3,8,9)              109.4722         estimate D2E/DX2                !
 ! A33   A(3,8,20)             109.4714         estimate D2E/DX2                !
 ! A34   A(3,8,21)             109.4703         estimate D2E/DX2                !
 ! A35   A(9,8,20)             109.4707         estimate D2E/DX2                !
 ! A36   A(9,8,21)             109.4709         estimate D2E/DX2                !
 ! A37   A(20,8,21)            109.472          estimate D2E/DX2                !
 ! A38   A(8,9,22)             109.4708         estimate D2E/DX2                !
 ! A39   A(8,9,23)             109.4718         estimate D2E/DX2                !
 ! A40   A(8,9,24)             109.4705         estimate D2E/DX2                !
 ! A41   A(22,9,23)            109.4707         estimate D2E/DX2                !
 ! A42   A(22,9,24)            109.4727         estimate D2E/DX2                !
 ! A43   A(23,9,24)            109.4709         estimate D2E/DX2                !
 ! A44   A(2,25,26)            109.4712         estimate D2E/DX2                !
 ! A45   A(2,25,27)            109.4686         estimate D2E/DX2                !
 ! A46   A(2,25,28)            109.4734         estimate D2E/DX2                !
 ! A47   A(26,25,27)           109.4734         estimate D2E/DX2                !
 ! A48   A(26,25,28)           109.472          estimate D2E/DX2                !
 ! A49   A(27,25,28)           109.4687         estimate D2E/DX2                !
 ! A50   L(2,1,3,14,-1)        180.006          estimate D2E/DX2                !
 ! A51   L(2,1,3,14,-2)        180.0067         estimate D2E/DX2                !
 ! D1    D(25,2,3,4)           119.9758         estimate D2E/DX2                !
 ! D2    D(25,2,3,6)          -120.0251         estimate D2E/DX2                !
 ! D3    D(25,2,3,8)            -0.0251         estimate D2E/DX2                !
 ! D4    D(1,2,25,26)           59.9859         estimate D2E/DX2                !
 ! D5    D(1,2,25,27)          179.987          estimate D2E/DX2                !
 ! D6    D(1,2,25,28)          -60.0164         estimate D2E/DX2                !
 ! D7    D(1,3,4,5)             59.9782         estimate D2E/DX2                !
 ! D8    D(1,3,4,10)           179.9798         estimate D2E/DX2                !
 ! D9    D(1,3,4,11)           -60.0202         estimate D2E/DX2                !
 ! D10   D(6,3,4,5)            -60.0153         estimate D2E/DX2                !
 ! D11   D(6,3,4,10)            59.9863         estimate D2E/DX2                !
 ! D12   D(6,3,4,11)           179.9863         estimate D2E/DX2                !
 ! D13   D(8,3,4,5)            179.9852         estimate D2E/DX2                !
 ! D14   D(8,3,4,10)           -60.0132         estimate D2E/DX2                !
 ! D15   D(8,3,4,11)            59.9868         estimate D2E/DX2                !
 ! D16   D(1,3,6,7)             60.0079         estimate D2E/DX2                !
 ! D17   D(1,3,6,15)          -179.9923         estimate D2E/DX2                !
 ! D18   D(1,3,6,16)           -59.9921         estimate D2E/DX2                !
 ! D19   D(4,3,6,7)           -179.9966         estimate D2E/DX2                !
 ! D20   D(4,3,6,15)           -59.9967         estimate D2E/DX2                !
 ! D21   D(4,3,6,16)            60.0034         estimate D2E/DX2                !
 ! D22   D(8,3,6,7)            -59.9973         estimate D2E/DX2                !
 ! D23   D(8,3,6,15)            60.0026         estimate D2E/DX2                !
 ! D24   D(8,3,6,16)          -179.9973         estimate D2E/DX2                !
 ! D25   D(1,3,8,9)           -179.9987         estimate D2E/DX2                !
 ! D26   D(1,3,8,20)            60.0013         estimate D2E/DX2                !
 ! D27   D(1,3,8,21)           -59.9991         estimate D2E/DX2                !
 ! D28   D(4,3,8,9)             59.9993         estimate D2E/DX2                !
 ! D29   D(4,3,8,20)           -60.0007         estimate D2E/DX2                !
 ! D30   D(4,3,8,21)           179.9989         estimate D2E/DX2                !
 ! D31   D(6,3,8,9)            -60.0006         estimate D2E/DX2                !
 ! D32   D(6,3,8,20)           179.9994         estimate D2E/DX2                !
 ! D33   D(6,3,8,21)            59.999          estimate D2E/DX2                !
 ! D34   D(3,4,5,12)           179.9947         estimate D2E/DX2                !
 ! D35   D(3,4,5,13)            59.9938         estimate D2E/DX2                !
 ! D36   D(3,4,5,14)           -60.0063         estimate D2E/DX2                !
 ! D37   D(10,4,5,12)           59.9951         estimate D2E/DX2                !
 ! D38   D(10,4,5,13)          -60.0058         estimate D2E/DX2                !
 ! D39   D(10,4,5,14)          179.994          estimate D2E/DX2                !
 ! D40   D(11,4,5,12)          -60.0056         estimate D2E/DX2                !
 ! D41   D(11,4,5,13)          179.9935         estimate D2E/DX2                !
 ! D42   D(11,4,5,14)           59.9933         estimate D2E/DX2                !
 ! D43   D(3,6,7,17)          -179.9982         estimate D2E/DX2                !
 ! D44   D(3,6,7,18)            60.0055         estimate D2E/DX2                !
 ! D45   D(3,6,7,19)           -59.9936         estimate D2E/DX2                !
 ! D46   D(15,6,7,17)           60.0008         estimate D2E/DX2                !
 ! D47   D(15,6,7,18)          -59.9955         estimate D2E/DX2                !
 ! D48   D(15,6,7,19)         -179.9946         estimate D2E/DX2                !
 ! D49   D(16,6,7,17)          -59.999          estimate D2E/DX2                !
 ! D50   D(16,6,7,18)         -179.9953         estimate D2E/DX2                !
 ! D51   D(16,6,7,19)           60.0056         estimate D2E/DX2                !
 ! D52   D(3,8,9,22)           -60.005          estimate D2E/DX2                !
 ! D53   D(3,8,9,23)           179.9956         estimate D2E/DX2                !
 ! D54   D(3,8,9,24)            59.9961         estimate D2E/DX2                !
 ! D55   D(20,8,9,22)           59.9954         estimate D2E/DX2                !
 ! D56   D(20,8,9,23)          -60.004          estimate D2E/DX2                !
 ! D57   D(20,8,9,24)          179.9965         estimate D2E/DX2                !
 ! D58   D(21,8,9,22)          179.9958         estimate D2E/DX2                !
 ! D59   D(21,8,9,23)           59.9964         estimate D2E/DX2                !
 ! D60   D(21,8,9,24)          -60.0032         estimate D2E/DX2                !
 --------------------------------------------------------------------------------
 Trust Radius=3.00D-01 FncErr=1.00D-07 GrdErr=1.00D-06
 Number of steps in this run=    148 maximum allowed number of steps=    168.
 GradGradGradGradGradGradGradGradGradGradGradGradGradGradGradGradGradGrad

                          Input orientation:                          
 ---------------------------------------------------------------------
 Center     Atomic      Atomic             Coordinates (Angstroms)
 Number     Number       Type             X           Y           Z
 ---------------------------------------------------------------------
      1         79           0        0.000000    0.000000    0.000000
      2         16           0        0.000000    0.000000    2.350119
      3         15           0        0.000351    0.000000   -2.389922
      4          6           0       -0.530162   -1.631826   -2.996621
      5          6           0       -1.950298   -1.933668   -2.483048
      6          6           0       -1.147548    1.275375   -2.996607
      7          6           0       -0.698546    2.656120   -2.483282
      8          6           0        1.678871    0.356460   -2.996554
      9          6           0        1.678939    0.356460   -4.536557
     10          1           0       -0.530340   -1.631707   -4.066619
     11          1           0        0.144844   -2.381598   -2.640135
     12          1           0       -2.262188   -2.893005   -2.839833
     13          1           0       -2.625330   -1.183853   -2.839418
     14          1           0       -1.950057   -1.933881   -1.413044
     15          1           0       -1.147577    1.275377   -4.066604
     16          1           0       -2.134365    1.065838   -2.639924
     17          1           0       -1.373415    3.405956   -2.839920
     18          1           0        0.288171    2.865668   -2.840013
     19          1           0       -0.698435    2.656061   -1.413235
     20          1           0        2.353745   -0.393339   -2.639871
     21          1           0        1.990751    1.315836   -2.639882
     22          1           0        1.367132   -0.602932   -4.893224
     23          1           0        2.665729    0.566099   -4.893187
     24          1           0        1.004014    1.106224   -4.893240
     25          6           0        1.641601    0.347888    2.943869
     26          1           0        1.954114    1.307066    2.587116
     27          1           0        1.641246    0.348047    4.013867
     28          1           0        2.316229   -0.402329    2.587583
 ---------------------------------------------------------------------
                    Distance matrix (angstroms):
                    1          2          3          4          5
     1  Au   0.000000
     2  S    2.350119   0.000000
     3  P    2.389922   4.740041   0.000000
     4  C    3.453066   5.615297   1.819995   0.000000
     5  C    3.702467   5.558978   2.748231   1.540017   0.000000
     6  C    3.452984   5.615241   1.819978   2.972033   3.347552
     7  C    3.702652   5.559200   2.748117   4.321845   4.757419
     8  C    3.453260   5.615388   1.820026   2.972055   4.321949
     9  C    4.850387   7.097338   2.748229   3.347359   4.757409
    10  H    4.413742   6.642157   2.399044   1.069998   2.148291
    11  H    3.558553   5.531331   2.399061   1.069988   2.148240
    12  H    4.642372   6.357874   3.700132   2.148271   1.069999
    13  H    4.044274   5.935078   2.915090   2.148283   1.069996
    14  H    3.088577   4.658756   2.915181   2.148269   1.070005
    15  H    4.413705   6.642127   2.399081   3.158780   3.667422
    16  H    3.558191   5.531008   2.399067   3.158812   3.009241
    17  H    4.642408   6.357933   3.700036   5.110271   5.382540
    18  H    4.044845   5.935703   2.915043   4.574018   5.307711
    19  H    3.088641   4.658895   2.914941   4.573992   4.876195
    20  H    3.558616   5.531259   2.399094   3.158803   4.574056
    21  H    3.558580   5.531241   2.399083   3.894994   5.110357
    22  H    5.116270   7.395850   2.915156   2.873230   4.311050
    23  H    5.600881   7.738996   3.700141   4.317587   5.776271
    24  H    5.116207   7.395811   2.915077   3.667121   4.876262
    25  C    3.388546   1.780005   5.591427   6.627613   6.896279
    26  H    3.495733   2.362869   5.504227   6.781359   7.173099
    27  H    4.350397   2.362813   6.619834   7.601438   7.766294
    28  H    3.496051   2.362874   5.504609   6.387249   6.801437
                    6          7          8          9         10
     6  C    0.000000
     7  C    1.539988   0.000000
     8  C    2.972045   3.347237   0.000000
     9  C    3.347369   3.893175   1.540003   0.000000
    10  H    3.158638   4.573916   3.158871   3.009081   0.000000
    11  H    3.894971   5.110236   3.158676   3.666991   1.747303
    12  H    4.317683   5.776235   5.110336   5.382413   2.468840
    13  H    2.873386   4.310999   4.574210   4.876431   2.468922
    14  H    3.667563   4.876454   4.574089   5.307694   3.024627
    15  H    1.069997   2.148252   3.158833   3.009063   2.971888
    16  H    1.070017   2.148280   3.895019   4.317606   3.447478
    17  H    2.148242   1.069997   4.317454   4.636256   5.252962
    18  H    2.148219   1.069943   2.873095   3.332960   4.732959
    19  H    2.148271   1.070048   3.666967   4.549200   5.045162
    20  H    3.894986   4.317429   1.069989   2.148250   3.447769
    21  H    3.158768   3.008854   1.069994   2.148257   4.132734
    22  H    3.667261   4.549314   2.148248   1.069984   2.311289
    23  H    4.317542   4.636181   2.148268   1.069994   3.965908
    24  H    2.873160   3.332984   2.148254   1.069997   3.245584
    25  C    6.627884   6.344935   5.940546   7.480524   7.601518
    26  H    6.387431   5.879242   5.670694   7.192085   7.686422
    27  H    7.601583   7.281125   7.010527   8.550512   8.598225
    28  H    6.782007   6.645048   5.671382   7.192724   7.341167
                   11         12         13         14         15
    11  H    0.000000
    12  H    2.468850   0.000000
    13  H    3.024594   1.747305   0.000000
    14  H    2.468768   1.747304   1.747306   0.000000
    15  H    4.132631   4.485837   3.120505   4.240837   0.000000
    16  H    4.132749   3.965948   2.311267   3.246155   1.747304
    17  H    5.986719   6.361354   4.757481   5.557189   2.468830
    18  H    5.253027   6.298146   4.988697   5.484668   2.468789
    19  H    5.253038   5.939077   4.526793   4.757534   3.024630
    20  H    2.971938   5.253108   5.045385   4.732978   4.132727
    21  H    4.132601   5.986803   5.253233   5.253167   3.447648
    22  H    3.119944   4.757396   4.527178   4.988670   3.245783
    23  H    4.485535   6.361291   5.939327   6.298157   3.965806
    24  H    4.240231   5.556833   4.757602   5.484573   2.311122
    25  C    6.393080   7.693774   7.348424   6.090087   7.601742
    26  H    6.648597   8.054164   7.524841   6.461235   7.341217
    27  H    7.346150   8.527275   8.216928   6.896087   8.598342
    28  H    5.996787   7.524773   7.381200   6.045814   7.687058
                   16         17         18         19         20
    16  H    0.000000
    17  H    2.468844   0.000000
    18  H    3.024583   1.747221   0.000000
    19  H    2.468901   1.747390   1.747290   0.000000
    20  H    4.719357   5.326010   3.863648   4.485452   0.000000
    21  H    4.132685   3.965631   2.311019   3.245395   1.747296
    22  H    4.485826   5.272365   4.172651   5.195953   2.468792
    23  H    5.326147   5.347465   3.893112   5.272154   2.468864
    24  H    3.863740   3.893207   2.797108   4.172621   3.024588
    25  C    6.778799   7.203771   6.451688   5.457818   5.677563
    26  H    6.640466   6.703022   5.887133   4.985840   5.511122
    27  H    7.683971   8.087855   7.425962   6.344641   6.732722
    28  H    7.020693   7.587773   6.652190   5.869284   5.227597
                   21         22         23         24         25
    21  H    0.000000
    22  H    3.024586   0.000000
    23  H    2.468823   1.747280   0.000000
    24  H    2.468848   1.747303   1.747292   0.000000
    25  C    5.677773   7.899330   7.906700   7.899486   0.000000
    26  H    5.227133   7.742617   7.550521   7.543126   1.070028
    27  H    6.732841   8.961907   8.968430   8.962001   1.069998
    28  H    5.512207   7.543441   7.551287   7.743407   1.069995
                   26         27         28
    26  H    0.000000
    27  H    1.747348   0.000000
    28  H    1.747329   1.747270   0.000000
 Stoichiometry    C7H18AuPS
 Framework group  C1[X(C7H18AuPS)]
 Deg. of freedom    78
 Full point group                 C1      NOp   1
 Largest Abelian subgroup         C1      NOp   1
 Largest concise Abelian subgroup C1      NOp   1
                         Standard orientation:                         
 ---------------------------------------------------------------------
 Center     Atomic      Atomic             Coordinates (Angstroms)
 Number     Number       Type             X           Y           Z
 ---------------------------------------------------------------------
      1         79           0       -0.759869    0.113519    0.035815
      2         16           0       -3.102814    0.199479    0.197932
      3         15           0        1.622730    0.025880   -0.129318
      4          6           0        2.242634    1.600118   -0.800048
      5          6           0        1.834543    2.753082    0.135786
      6          6           0        2.335323   -0.252511    1.522054
      7          6           0        1.810817   -1.584603    2.089491
      8          6           0        2.104684   -1.336613   -1.235586
      9          6           0        3.639980   -1.392984   -1.341872
     10          1           0        3.309380    1.561002   -0.873646
     11          1           0        1.823871    1.763662   -1.771009
     12          1           0        2.199090    3.678563   -0.258533
     13          1           0        2.253191    2.589525    1.106803
     14          1           0        0.767783    2.792231    0.209278
     15          1           0        3.402056   -0.291632    1.448267
     16          1           0        2.051940    0.548489    2.172460
     17          1           0        2.229720   -1.748289    3.060377
     18          1           0        2.094256   -2.385551    1.439165
     19          1           0        0.744026   -1.545489    2.163183
     20          1           0        1.685735   -1.172956   -2.206449
     21          1           0        1.740250   -2.262122   -0.841242
     22          1           0        4.004403   -0.467510   -1.736283
     23          1           0        3.923315   -2.194044   -1.992189
     24          1           0        4.058932   -1.556581   -0.370992
     25          6           0       -3.814887   -1.089062   -0.802583
     26          1           0       -3.468125   -2.040914   -0.458065
     27          1           0       -4.881589   -1.049823   -0.728399
     28          1           0       -3.523031   -0.951005   -1.822706
 ---------------------------------------------------------------------
 Rotational constants (GHZ):      1.0897597      0.3547161      0.3319313
 General basis read from cards:  (5D, 7F)
 ======================================================================================================
                                       Pseudopotential Parameters
 ======================================================================================================
  Center     Atomic      Valence      Angular      Power
  Number     Number     Electrons     Momentum     of R      Exponent        Coefficient   SO-Coeffient
 ======================================================================================================
    1         79           19
                                      G and up 
                                                     1      622.6287956      -60.00000000    0.00000000
                                                     2      136.2843607     -555.52923120    0.00000000
                                                     2       33.1549781     -168.00197850    0.00000000
                                                     2        9.9894895      -63.03998750    0.00000000
                                                     2        3.0481312       -4.25166810    0.00000000
                                      S - G
                                                     0      194.7374304        3.00000000    0.00000000
                                                     1      351.5327447       38.60208800    0.00000000
                                                     2      122.3270402      864.83707270    0.00000000
                                                     2       32.0914617      374.99355200    0.00000000
                                                     2        5.2451812      289.79101000    0.00000000
                                                     2        4.4916223     -152.45327730    0.00000000
                                      P - G
                                                     0      420.6158801        2.00000000    0.00000000
                                                     1      109.4417815       73.88856250    0.00000000
                                                     2       34.1714280      326.67298720    0.00000000
                                                     2        5.9879750      126.58145910    0.00000000
                                      D - G
                                                     0      219.2666158        3.00000000    0.00000000
                                                     1      122.7297786       55.67931490    0.00000000
                                                     2       63.1063369      449.19873350    0.00000000
                                                     2       18.3684520      215.02690910    0.00000000
                                                     2        4.4972844       64.08409950    0.00000000
                                      F - G
                                                     0      108.5506037        4.00000000    0.00000000
                                                     1       56.4795527       51.80653350    0.00000000
                                                     2       29.2069159      231.21831130    0.00000000
                                                     2        9.5440543      119.00473860    0.00000000
                                                     2        2.8965118       15.34241880    0.00000000
    2         16
                                   No pseudopotential on this center.
    3         15
                                   No pseudopotential on this center.
    4          6
                                   No pseudopotential on this center.
    5          6
                                   No pseudopotential on this center.
    6          6
                                   No pseudopotential on this center.
    7          6
                                   No pseudopotential on this center.
    8          6
                                   No pseudopotential on this center.
    9          6
                                   No pseudopotential on this center.
   10          1
                                   No pseudopotential on this center.
   11          1
                                   No pseudopotential on this center.
   12          1
                                   No pseudopotential on this center.
   13          1
                                   No pseudopotential on this center.
   14          1
                                   No pseudopotential on this center.
   15          1
                                   No pseudopotential on this center.
   16          1
                                   No pseudopotential on this center.
   17          1
                                   No pseudopotential on this center.
   18          1
                                   No pseudopotential on this center.
   19          1
                                   No pseudopotential on this center.
   20          1
                                   No pseudopotential on this center.
   21          1
                                   No pseudopotential on this center.
   22          1
                                   No pseudopotential on this center.
   23          1
                                   No pseudopotential on this center.
   24          1
                                   No pseudopotential on this center.
   25          6
                                   No pseudopotential on this center.
   26          1
                                   No pseudopotential on this center.
   27          1
                                   No pseudopotential on this center.
   28          1
                                   No pseudopotential on this center.
 ======================================================================================================
 There are   227 symmetry adapted cartesian basis functions of A   symmetry.
 There are   212 symmetry adapted basis functions of A   symmetry.
   212 basis functions,   420 primitive gaussians,   227 cartesian basis functions
    55 alpha electrons       55 beta electrons
       nuclear repulsion energy       896.3199317714 Hartrees.
 NAtoms=   28 NActive=   28 NUniq=   28 SFac= 1.00D+00 NAtFMM=   60 NAOKFM=F Big=F
 Integral buffers will be    131072 words long.
 Raffenetti 2 integral format.
 Two-electron integral symmetry is turned on.
 One-electron integrals computed using PRISM.
   1 Symmetry operations used in ECPInt.
 ECPInt:  NShTT=    3916 NPrTT=   19749 LenC2=    3684 LenP2D=   12301.
 LDataN:  DoStor=T MaxTD1= 7 Len=  274
 NBasis=   212 RedAO= T EigKep=  2.54D-03  NBF=   212
 NBsUse=   212 1.00D-06 EigRej= -1.00D+00 NBFU=   212
 Defaulting to unpruned grid for atomic number  79.
 ExpMin= 2.79D-02 ExpMax= 2.19D+04 ExpMxC= 3.30D+03 IAcc=3 IRadAn=         5 AccDes= 0.00D+00
 Harris functional with IExCor=  402 and IRadAn=       5 diagonalized for initial guess.
 HarFok:  IExCor=  402 AccDes= 0.00D+00 IRadAn=         5 IDoV= 1 UseB2=F ITyADJ=14
 ICtDFT=  3500011 ScaDFX=  1.000000  1.000000  1.000000  1.000000
 Defaulting to unpruned grid for atomic number  79.
 Defaulting to unpruned grid for atomic number  79.
 Defaulting to unpruned grid for atomic number  79.
 Defaulting to unpruned grid for atomic number  79.
 Defaulting to unpruned grid for atomic number  79.
 Defaulting to unpruned grid for atomic number  79.
 Defaulting to unpruned grid for atomic number  79.
 Defaulting to unpruned grid for atomic number  79.
 FoFCou: FMM=F IPFlag=           0 FMFlag=      100000 FMFlg1=           0
         NFxFlg=           0 DoJE=T BraDBF=F KetDBF=T FulRan=T
         wScrn=  0.000000 ICntrl=     500 IOpCl=  0 I1Cent=   200000004 NGrid=           0
         NMat0=    1 NMatS0=      1 NMatT0=    0 NMatD0=    1 NMtDS0=    0 NMtDT0=    0
 Petite list used in FoFCou.
 Keep R1 ints in memory in canonical form, NReq=260997064.
 Requested convergence on RMS density matrix=1.00D-08 within 128 cycles.
 Requested convergence on MAX density matrix=1.00D-06.
 Requested convergence on             energy=1.00D-06.
 No special actions if energy rises.
 Defaulting to unpruned grid for atomic number  79.
 Defaulting to unpruned grid for atomic number  79.
 Defaulting to unpruned grid for atomic number  79.
 Defaulting to unpruned grid for atomic number  79.
 Defaulting to unpruned grid for atomic number  79.
 Defaulting to unpruned grid for atomic number  79.
 Defaulting to unpruned grid for atomic number  79.
 Defaulting to unpruned grid for atomic number  79.
 SCF Done:  E(RB3LYP) =  -1152.65952555     A.U. after   12 cycles
            NFock= 12  Conv=0.95D-08     -V/T= 2.0899

 **********************************************************************

            Population analysis using the SCF density.

 **********************************************************************

 Orbital symmetries:
       Occupied  (A) (A) (A) (A) (A) (A) (A) (A) (A) (A) (A) (A)
                 (A) (A) (A) (A) (A) (A) (A) (A) (A) (A) (A) (A)
                 (A) (A) (A) (A) (A) (A) (A) (A) (A) (A) (A) (A)
                 (A) (A) (A) (A) (A) (A) (A) (A) (A) (A) (A) (A)
                 (A) (A) (A) (A) (A) (A) (A)
       Virtual   (A) (A) (A) (A) (A) (A) (A) (A) (A) (A) (A) (A)
                 (A) (A) (A) (A) (A) (A) (A) (A) (A) (A) (A) (A)
                 (A) (A) (A) (A) (A) (A) (A) (A) (A) (A) (A) (A)
                 (A) (A) (A) (A) (A) (A) (A) (A) (A) (A) (A) (A)
                 (A) (A) (A) (A) (A) (A) (A) (A) (A) (A) (A) (A)
                 (A) (A) (A) (A) (A) (A) (A) (A) (A) (A) (A) (A)
                 (A) (A) (A) (A) (A) (A) (A) (A) (A) (A) (A) (A)
                 (A) (A) (A) (A) (A) (A) (A) (A) (A) (A) (A) (A)
                 (A) (A) (A) (A) (A) (A) (A) (A) (A) (A) (A) (A)
                 (A) (A) (A) (A) (A) (A) (A) (A) (A) (A) (A) (A)
                 (A) (A) (A) (A) (A) (A) (A) (A) (A) (A) (A) (A)
                 (A) (A) (A) (A) (A) (A) (A) (A) (A) (A) (A) (A)
                 (A) (A) (A) (A) (A) (A) (A) (A) (A) (A) (A) (A)
                 (A)
 The electronic state is 1-A.
 Alpha  occ. eigenvalues --  -88.78599 -77.11235 -10.20917 -10.20802 -10.20631
 Alpha  occ. eigenvalues --  -10.19446 -10.18636 -10.18507 -10.15248  -7.86282
 Alpha  occ. eigenvalues --   -6.59375  -5.82675  -5.82238  -5.81812  -4.75518
 Alpha  occ. eigenvalues --   -4.75508  -4.75263  -4.14184  -2.28646  -2.26828
 Alpha  occ. eigenvalues --   -2.26664  -0.83437  -0.79100  -0.78804  -0.72753
 Alpha  occ. eigenvalues --   -0.69130  -0.65759  -0.64869  -0.57697  -0.56401
 Alpha  occ. eigenvalues --   -0.50548  -0.49002  -0.48419  -0.46779  -0.45457
 Alpha  occ. eigenvalues --   -0.42864  -0.40879  -0.39994  -0.39761  -0.39555
 Alpha  occ. eigenvalues --   -0.39520  -0.39240  -0.39003  -0.37889  -0.36503
 Alpha  occ. eigenvalues --   -0.35371  -0.34873  -0.31718  -0.30143  -0.28187
 Alpha  occ. eigenvalues --   -0.27838  -0.27825  -0.25198  -0.20852  -0.16826
 Alpha virt. eigenvalues --   -0.00925   0.00157   0.02011   0.03996   0.05859
 Alpha virt. eigenvalues --    0.06379   0.08051   0.08824   0.09520   0.10576
 Alpha virt. eigenvalues --    0.10787   0.12536   0.13553   0.13806   0.14610
 Alpha virt. eigenvalues --    0.14798   0.15546   0.16226   0.16755   0.17297
 Alpha virt. eigenvalues --    0.17990   0.18524   0.19122   0.19894   0.20624
 Alpha virt. eigenvalues --    0.20907   0.21707   0.22107   0.23298   0.24127
 Alpha virt. eigenvalues --    0.25404   0.27503   0.31907   0.37979   0.38373
 Alpha virt. eigenvalues --    0.38615   0.40576   0.41323   0.42015   0.43825
 Alpha virt. eigenvalues --    0.44434   0.47749   0.48284   0.49539   0.52267
 Alpha virt. eigenvalues --    0.52793   0.54913   0.56732   0.57755   0.58101
 Alpha virt. eigenvalues --    0.58956   0.59205   0.59424   0.61321   0.62575
 Alpha virt. eigenvalues --    0.64470   0.65592   0.66096   0.69131   0.72370
 Alpha virt. eigenvalues --    0.74338   0.76264   0.78724   0.81822   0.82663
 Alpha virt. eigenvalues --    0.84284   0.86141   0.86228   0.86375   0.87241
 Alpha virt. eigenvalues --    0.88404   0.88840   0.89620   0.90138   0.91182
 Alpha virt. eigenvalues --    0.91341   0.91572   0.93048   0.94317   0.95099
 Alpha virt. eigenvalues --    0.95904   0.96309   0.97461   0.98810   0.99774
 Alpha virt. eigenvalues --    1.01060   1.01534   1.02440   1.02697   1.03008
 Alpha virt. eigenvalues --    1.03915   1.05284   1.05866   1.11254   1.11764
 Alpha virt. eigenvalues --    1.19810   1.27666   1.31296   1.38714   1.47878
 Alpha virt. eigenvalues --    1.48995   1.49729   1.51627   1.54134   1.55856
 Alpha virt. eigenvalues --    1.65748   1.70169   1.75009   1.75698   1.76354
 Alpha virt. eigenvalues --    1.84266   1.85237   1.91078   1.91865   1.92565
 Alpha virt. eigenvalues --    1.95842   1.97924   1.98591   1.99790   1.99987
 Alpha virt. eigenvalues --    2.01141   2.01595   2.02182   2.02459   2.03035
 Alpha virt. eigenvalues --    2.03170   2.03610   2.05155   2.05721   2.06852
 Alpha virt. eigenvalues --    2.10860   2.13544   2.17307   2.17821   2.23811
 Alpha virt. eigenvalues --    2.26677   2.26886   2.27760   2.29218   2.30398
 Alpha virt. eigenvalues --    2.30741   2.31215   2.31666   2.32500   2.32584
 Alpha virt. eigenvalues --    2.33531   2.34496   2.35102   2.35491   2.58304
 Alpha virt. eigenvalues --    2.59625   2.62556   2.64283  15.61629  15.62540
 Alpha virt. eigenvalues --   15.70999  43.12975
          Condensed to atoms (all electrons):
               1          2          3          4          5          6
     1  Au  18.614980   0.344954   0.335916  -0.029430  -0.004895  -0.030284
     2  S    0.344954  15.759588  -0.004962   0.000055  -0.000064   0.000040
     3  P    0.335916  -0.004962  13.565701   0.312622  -0.040741   0.314993
     4  C   -0.029430   0.000055   0.312622   5.234871   0.366875  -0.028451
     5  C   -0.004895  -0.000064  -0.040741   0.366875   5.072198  -0.003459
     6  C   -0.030284   0.000040   0.314993  -0.028451  -0.003459   5.233366
     7  C   -0.005808  -0.000112  -0.041428   0.001718   0.000166   0.365320
     8  C   -0.034298   0.000020   0.314732  -0.026742   0.001750  -0.023129
     9  C    0.003297  -0.000001  -0.032787  -0.006608   0.000126  -0.005474
    10  H    0.003886  -0.000002  -0.031384   0.356569  -0.034097  -0.003861
    11  H   -0.003185  -0.000017  -0.026322   0.377800  -0.027619   0.001818
    12  H   -0.000214   0.000000   0.004735  -0.028592   0.376910   0.000031
    13  H    0.000056  -0.000002  -0.006546  -0.040962   0.383884   0.002787
    14  H    0.012560  -0.000049  -0.009393  -0.033817   0.387757  -0.000235
    15  H    0.003411  -0.000002  -0.030764  -0.002012  -0.000179   0.353917
    16  H   -0.004340  -0.000012  -0.030900  -0.001334   0.000650   0.380784
    17  H    0.000040   0.000000   0.005037  -0.000060  -0.000001  -0.028376
    18  H   -0.001558  -0.000005  -0.006932   0.000007  -0.000002  -0.040916
    19  H    0.012086  -0.000098  -0.010299   0.000036  -0.000010  -0.033377
    20  H   -0.001703  -0.000021  -0.027063  -0.002162   0.000017   0.001816
    21  H   -0.001549  -0.000021  -0.024745   0.001781  -0.000023  -0.002557
    22  H    0.000442   0.000000  -0.007086   0.002473  -0.000033  -0.000591
    23  H    0.000008   0.000000   0.005079   0.000112   0.000000   0.000105
    24  H   -0.000059   0.000000  -0.007981  -0.000562  -0.000010   0.001842
    25  C   -0.023161   0.240049   0.000058   0.000000   0.000000   0.000000
    26  H   -0.001435  -0.053816  -0.000009   0.000000   0.000000   0.000000
    27  H   -0.000452  -0.040343  -0.000004   0.000000   0.000000   0.000000
    28  H   -0.001731  -0.053851   0.000006   0.000000   0.000000   0.000000
               7          8          9         10         11         12
     1  Au  -0.005808  -0.034298   0.003297   0.003886  -0.003185  -0.000214
     2  S   -0.000112   0.000020  -0.000001  -0.000002  -0.000017   0.000000
     3  P   -0.041428   0.314732  -0.032787  -0.031384  -0.026322   0.004735
     4  C    0.001718  -0.026742  -0.006608   0.356569   0.377800  -0.028592
     5  C    0.000166   0.001750   0.000126  -0.034097  -0.027619   0.376910
     6  C    0.365320  -0.023129  -0.005474  -0.003861   0.001818   0.000031
     7  C    5.075081  -0.002874  -0.000995  -0.000028  -0.000021  -0.000001
     8  C   -0.002874   5.229840   0.350550  -0.002466  -0.000422  -0.000057
     9  C   -0.000995   0.350550   5.076991   0.000874  -0.000187   0.000000
    10  H   -0.000028  -0.002466   0.000874   0.567716  -0.030650  -0.004162
    11  H   -0.000021  -0.000422  -0.000187  -0.030650   0.511124  -0.004571
    12  H   -0.000001  -0.000057   0.000000  -0.004162  -0.004571   0.545357
    13  H    0.000002   0.000040  -0.000010  -0.003512   0.004824  -0.028796
    14  H   -0.000014   0.000031  -0.000004   0.004303  -0.003998  -0.025955
    15  H   -0.035270  -0.003937   0.001546   0.002347  -0.000036  -0.000003
    16  H   -0.026879   0.001947   0.000042  -0.000247   0.000023  -0.000056
    17  H    0.376633   0.000077  -0.000007   0.000000   0.000000   0.000000
    18  H    0.383459   0.002215   0.000318   0.000000  -0.000001   0.000000
    19  H    0.388693  -0.000252   0.000027   0.000000   0.000000   0.000000
    20  H    0.000102   0.381444  -0.034837  -0.000169   0.001069  -0.000001
    21  H    0.001312   0.376466  -0.036224  -0.000027   0.000008   0.000001
    22  H    0.000054  -0.038780   0.385601   0.004457   0.000096   0.000004
    23  H   -0.000008  -0.029538   0.379119  -0.000108  -0.000003   0.000000
    24  H    0.000401  -0.039237   0.385784   0.000180   0.000022   0.000000
    25  C    0.000000  -0.000002   0.000000   0.000000   0.000000   0.000000
    26  H    0.000001   0.000001   0.000000   0.000000   0.000000   0.000000
    27  H    0.000000   0.000000   0.000000   0.000000   0.000000   0.000000
    28  H    0.000000   0.000000   0.000000   0.000000   0.000000   0.000000
              13         14         15         16         17         18
     1  Au   0.000056   0.012560   0.003411  -0.004340   0.000040  -0.001558
     2  S   -0.000002  -0.000049  -0.000002  -0.000012   0.000000  -0.000005
     3  P   -0.006546  -0.009393  -0.030764  -0.030900   0.005037  -0.006932
     4  C   -0.040962  -0.033817  -0.002012  -0.001334  -0.000060   0.000007
     5  C    0.383884   0.387757  -0.000179   0.000650  -0.000001  -0.000002
     6  C    0.002787  -0.000235   0.353917   0.380784  -0.028376  -0.040916
     7  C    0.000002  -0.000014  -0.035270  -0.026879   0.376633   0.383459
     8  C    0.000040   0.000031  -0.003937   0.001947   0.000077   0.002215
     9  C   -0.000010  -0.000004   0.001546   0.000042  -0.000007   0.000318
    10  H   -0.003512   0.004303   0.002347  -0.000247   0.000000   0.000000
    11  H    0.004824  -0.003998  -0.000036   0.000023   0.000000  -0.000001
    12  H   -0.028796  -0.025955  -0.000003  -0.000056   0.000000   0.000000
    13  H    0.553907  -0.028440   0.000242   0.003556   0.000003   0.000002
    14  H   -0.028440   0.474611   0.000011  -0.000003   0.000000   0.000000
    15  H    0.000242   0.000011   0.569277  -0.029936  -0.004298  -0.003765
    16  H    0.003556  -0.000003  -0.029936   0.505952  -0.004347   0.004831
    17  H    0.000003   0.000000  -0.004298  -0.004347   0.544718  -0.028999
    18  H    0.000002   0.000000  -0.003765   0.004831  -0.028999   0.558496
    19  H    0.000003  -0.000001   0.004383  -0.003793  -0.025842  -0.027695
    20  H    0.000002  -0.000001  -0.000035  -0.000016   0.000001   0.000028
    21  H    0.000000  -0.000001  -0.000121   0.000011  -0.000067   0.003036
    22  H    0.000005   0.000001   0.000122  -0.000019   0.000000  -0.000011
    23  H    0.000000   0.000000  -0.000134   0.000001   0.000000  -0.000030
    24  H    0.000001   0.000000   0.003845   0.000025  -0.000025   0.001293
    25  C    0.000000   0.000000   0.000000   0.000000   0.000000   0.000000
    26  H    0.000000   0.000000   0.000000   0.000000   0.000000   0.000000
    27  H    0.000000   0.000000   0.000000   0.000000   0.000000   0.000000
    28  H    0.000000   0.000000   0.000000   0.000000   0.000000   0.000000
              19         20         21         22         23         24
     1  Au   0.012086  -0.001703  -0.001549   0.000442   0.000008  -0.000059
     2  S   -0.000098  -0.000021  -0.000021   0.000000   0.000000   0.000000
     3  P   -0.010299  -0.027063  -0.024745  -0.007086   0.005079  -0.007981
     4  C    0.000036  -0.002162   0.001781   0.002473   0.000112  -0.000562
     5  C   -0.000010   0.000017  -0.000023  -0.000033   0.000000  -0.000010
     6  C   -0.033377   0.001816  -0.002557  -0.000591   0.000105   0.001842
     7  C    0.388693   0.000102   0.001312   0.000054  -0.000008   0.000401
     8  C   -0.000252   0.381444   0.376466  -0.038780  -0.029538  -0.039237
     9  C    0.000027  -0.034837  -0.036224   0.385601   0.379119   0.385784
    10  H    0.000000  -0.000169  -0.000027   0.004457  -0.000108   0.000180
    11  H    0.000000   0.001069   0.000008   0.000096  -0.000003   0.000022
    12  H    0.000000  -0.000001   0.000001   0.000004   0.000000   0.000000
    13  H    0.000003   0.000002   0.000000   0.000005   0.000000   0.000001
    14  H   -0.000001  -0.000001  -0.000001   0.000001   0.000000   0.000000
    15  H    0.004383  -0.000035  -0.000121   0.000122  -0.000134   0.003845
    16  H   -0.003793  -0.000016   0.000011  -0.000019   0.000001   0.000025
    17  H   -0.025842   0.000001  -0.000067   0.000000   0.000000  -0.000025
    18  H   -0.027695   0.000028   0.003036  -0.000011  -0.000030   0.001293
    19  H    0.469697  -0.000015  -0.000081  -0.000002   0.000000  -0.000013
    20  H   -0.000015   0.505676  -0.023195  -0.003653  -0.003759   0.004843
    21  H   -0.000081  -0.023195   0.508763   0.004863  -0.003809  -0.004082
    22  H   -0.000002  -0.003653   0.004863   0.548548  -0.028664  -0.031480
    23  H    0.000000  -0.003759  -0.003809  -0.028664   0.542961  -0.028741
    24  H   -0.000013   0.004843  -0.004082  -0.031480  -0.028741   0.552656
    25  C   -0.000002  -0.000001  -0.000001   0.000000   0.000000   0.000000
    26  H   -0.000001   0.000000   0.000000   0.000000   0.000000   0.000000
    27  H    0.000000   0.000000   0.000000   0.000000   0.000000   0.000000
    28  H    0.000000   0.000000   0.000000   0.000000   0.000000   0.000000
              25         26         27         28
     1  Au  -0.023161  -0.001435  -0.000452  -0.001731
     2  S    0.240049  -0.053816  -0.040343  -0.053851
     3  P    0.000058  -0.000009  -0.000004   0.000006
     4  C    0.000000   0.000000   0.000000   0.000000
     5  C    0.000000   0.000000   0.000000   0.000000
     6  C    0.000000   0.000000   0.000000   0.000000
     7  C    0.000000   0.000001   0.000000   0.000000
     8  C   -0.000002   0.000001   0.000000   0.000000
     9  C    0.000000   0.000000   0.000000   0.000000
    10  H    0.000000   0.000000   0.000000   0.000000
    11  H    0.000000   0.000000   0.000000   0.000000
    12  H    0.000000   0.000000   0.000000   0.000000
    13  H    0.000000   0.000000   0.000000   0.000000
    14  H    0.000000   0.000000   0.000000   0.000000
    15  H    0.000000   0.000000   0.000000   0.000000
    16  H    0.000000   0.000000   0.000000   0.000000
    17  H    0.000000   0.000000   0.000000   0.000000
    18  H    0.000000   0.000000   0.000000   0.000000
    19  H   -0.000002  -0.000001   0.000000   0.000000
    20  H   -0.000001   0.000000   0.000000   0.000000
    21  H   -0.000001   0.000000   0.000000   0.000000
    22  H    0.000000   0.000000   0.000000   0.000000
    23  H    0.000000   0.000000   0.000000   0.000000
    24  H    0.000000   0.000000   0.000000   0.000000
    25  C    5.225650   0.378611   0.375387   0.378636
    26  H    0.378611   0.573500  -0.032897  -0.042866
    27  H    0.375387  -0.032897   0.557965  -0.032758
    28  H    0.378636  -0.042866  -0.032758   0.573015
 Mulliken charges:
               1
     1  Au  -0.187536
     2  S   -0.191327
     3  P    0.480467
     4  C   -0.454188
     5  C   -0.479201
     6  C   -0.456111
     7  C   -0.479506
     8  C   -0.457382
     9  C   -0.467140
    10  H    0.170380
    11  H    0.200248
    12  H    0.165368
    13  H    0.158953
    14  H    0.222638
    15  H    0.171393
    16  H    0.204059
    17  H    0.165513
    18  H    0.156230
    19  H    0.226555
    20  H    0.201633
    21  H    0.200261
    22  H    0.163655
    23  H    0.167407
    24  H    0.161299
    25  C   -0.575225
    26  H    0.178909
    27  H    0.173101
    28  H    0.179547
 Sum of Mulliken charges =   0.00000
 Mulliken charges with hydrogens summed into heavy atoms:
               1
     1  Au  -0.187536
     2  S   -0.191327
     3  P    0.480467
     4  C   -0.083560
     5  C    0.067758
     6  C   -0.080659
     7  C    0.068793
     8  C   -0.055488
     9  C    0.025221
    25  C   -0.043667
 Electronic spatial extent (au):  <R**2>=           3564.9944
 Charge=              0.0000 electrons
 Dipole moment (field-independent basis, Debye):
    X=              8.9028    Y=             -1.3126    Z=             -1.1874  Tot=              9.0771
 Quadrupole moment (field-independent basis, Debye-Ang):
   XX=            -98.7974   YY=            -93.1315   ZZ=            -93.9807
   XY=              4.4217   XZ=              3.2130   YZ=              0.8309
 Traceless Quadrupole moment (field-independent basis, Debye-Ang):
   XX=             -3.4942   YY=              2.1717   ZZ=              1.3225
   XY=              4.4217   XZ=              3.2130   YZ=              0.8309
 Octapole moment (field-independent basis, Debye-Ang**2):
  XXX=            -35.0149  YYY=             14.3791  ZZZ=              2.7250  XYY=            -14.0479
  XXY=            -14.4809  XXZ=            -13.5071  XZZ=            -12.6848  YZZ=              2.2180
  YYZ=             -1.6200  XYZ=             -2.3880
 Hexadecapole moment (field-independent basis, Debye-Ang**3):
 XXXX=          -3320.2194 YYYY=           -911.3086 ZZZZ=           -629.5295 XXXY=             57.8543
 XXXZ=             47.9748 YYYX=              0.5000 YYYZ=              0.0023 ZZZX=              9.2950
 ZZZY=              1.1525 XXYY=           -698.7109 XXZZ=           -656.6738 YYZZ=           -260.1599
 XXYZ=              6.6996 YYXZ=            -13.5932 ZZXY=             -9.5360
 N-N= 8.963199317714D+02 E-N=-4.474324008612D+03  KE= 1.057551529568D+03
   1 Symmetry operations used in ECPInt.
 ECPInt:  NShTT=    3916 NPrTT=   19749 LenC2=    3684 LenP2D=   12301.
 LDataN:  DoStor=T MaxTD1= 8 Len=  415
 Calling FoFJK, ICntrl=      2127 FMM=F ISym2X=0 I1Cent= 0 IOpClX= 0 NMat=1 NMatS=1 NMatT=0.
 Defaulting to unpruned grid for atomic number  79.
 Defaulting to unpruned grid for atomic number  79.
 Defaulting to unpruned grid for atomic number  79.
 Defaulting to unpruned grid for atomic number  79.
 Defaulting to unpruned grid for atomic number  79.
 Defaulting to unpruned grid for atomic number  79.
 Defaulting to unpruned grid for atomic number  79.
 Defaulting to unpruned grid for atomic number  79.
 ***** Axes restored to original set *****
 -------------------------------------------------------------------
 Center     Atomic                   Forces (Hartrees/Bohr)
 Number     Number              X              Y              Z
 -------------------------------------------------------------------
      1       79           0.006342128    0.001141135   -0.003108215
      2       16          -0.034471638   -0.007334255   -0.009113916
      3       15           0.000280024   -0.006435011    0.059027766
      4        6          -0.018254564    0.008076786    0.000552664
      5        6           0.019652930    0.003458026   -0.007152267
      6        6           0.017024733    0.012757015    0.000347357
      7        6          -0.007268946   -0.018726914   -0.006943806
      8        6          -0.014294297   -0.001312449   -0.033148404
      9        6           0.005139298    0.000928956    0.020505713
     10        1           0.001462324   -0.003881911   -0.019315163
     11        1           0.013994137   -0.009513045    0.004809303
     12        1          -0.007075463   -0.014854316   -0.005191133
     13        1          -0.014692538    0.008674353   -0.004168286
     14        1          -0.003200259   -0.000759187    0.017071406
     15        1          -0.005016153   -0.000070749   -0.019440772
     16        1          -0.014071406   -0.006681838    0.004725765
     17        1          -0.009291775    0.013569522   -0.005314599
     18        1           0.015135740    0.008722137   -0.004107988
     19        1           0.001214349    0.003016064    0.016837336
     20        1           0.008792802   -0.010716281    0.011060929
     21        1           0.005156093    0.012538328    0.010525206
     22        1          -0.003266624   -0.013696206   -0.010302436
     23        1           0.014810216    0.003249403   -0.009820099
     24        1          -0.008607787    0.011400099   -0.010685582
     25        6           0.007843127    0.001692107   -0.010293909
     26        1           0.009519544    0.014884988   -0.001978539
     27        1          -0.001572681   -0.000329138    0.016576384
     28        1           0.014716684   -0.009797620   -0.001954716
 -------------------------------------------------------------------
 Cartesian Forces:  Max     0.059027766 RMS     0.013018577

 GradGradGradGradGradGradGradGradGradGradGradGradGradGradGradGradGradGrad
 Berny optimization.
 FormGI is forming the generalized inverse of G from B-inverse, IUseBI=4.
 Internal  Forces:  Max     0.030185466 RMS     0.008198512
 Search for a local minimum.
 Step number   1 out of a maximum of  148
 All quantities printed in internal units (Hartrees-Bohrs-Radians)
 Mixed Optimization -- RFO/linear search
 Second derivative matrix not updated -- first step.
 ITU=  0
     Eigenvalues ---    0.00230   0.00230   0.00230   0.00237   0.00237
     Eigenvalues ---    0.00237   0.00635   0.00899   0.00900   0.00900
     Eigenvalues ---    0.04092   0.04092   0.04093   0.05118   0.05118
     Eigenvalues ---    0.05119   0.05282   0.05719   0.05720   0.05720
     Eigenvalues ---    0.05720   0.05720   0.05720   0.06293   0.06300
     Eigenvalues ---    0.07845   0.07846   0.07846   0.10090   0.10091
     Eigenvalues ---    0.11794   0.11794   0.11795   0.16000   0.16000
     Eigenvalues ---    0.16000   0.16000   0.16000   0.16000   0.16000
     Eigenvalues ---    0.16000   0.16000   0.16000   0.16000   0.16000
     Eigenvalues ---    0.16196   0.16206   0.16334   0.18132   0.21950
     Eigenvalues ---    0.21950   0.21950   0.24600   0.24603   0.24604
     Eigenvalues ---    0.25000   0.27757   0.28517   0.28519   0.28520
     Eigenvalues ---    0.37224   0.37227   0.37228   0.37230   0.37230
     Eigenvalues ---    0.37230   0.37230   0.37230   0.37231   0.37231
     Eigenvalues ---    0.37231   0.37231   0.37231   0.37231   0.37232
     Eigenvalues ---    0.37232   0.37232   0.37237
 RFO step:  Lambda=-3.28658377D-02 EMin= 2.30000000D-03
 Linear search not attempted -- first point.
 Maximum step size (   0.300) exceeded in Quadratic search.
    -- Step size scaled by   0.829
 Iteration  1 RMS(Cart)=  0.09286353 RMS(Int)=  0.00247518
 Iteration  2 RMS(Cart)=  0.00417013 RMS(Int)=  0.00038048
 Iteration  3 RMS(Cart)=  0.00000960 RMS(Int)=  0.00038045
 Iteration  4 RMS(Cart)=  0.00000001 RMS(Int)=  0.00038045
 Variable       Old X    -DE/DX   Delta X   Delta X   Delta X     New X
                                 (Linear)    (Quad)   (Total)
    R1        4.44108  -0.00676   0.00000  -0.02617  -0.02618   4.41490
    R2        4.51630  -0.00987   0.00000  -0.04170  -0.04170   4.47460
    R3        3.36372   0.03019   0.00000   0.08058   0.08058   3.44431
    R4        3.43929   0.01472   0.00000   0.04374   0.04374   3.48303
    R5        3.43926   0.01489   0.00000   0.04423   0.04423   3.48349
    R6        3.43935   0.01488   0.00000   0.04422   0.04422   3.48357
    R7        2.91021   0.00578   0.00000   0.01506   0.01506   2.92527
    R8        2.02200   0.01931   0.00000   0.03950   0.03950   2.06150
    R9        2.02198   0.01710   0.00000   0.03498   0.03498   2.05696
   R10        2.02200   0.01711   0.00000   0.03500   0.03500   2.05700
   R11        2.02200   0.01673   0.00000   0.03423   0.03423   2.05623
   R12        2.02202   0.01708   0.00000   0.03493   0.03493   2.05694
   R13        2.91016   0.00598   0.00000   0.01559   0.01559   2.92574
   R14        2.02200   0.01944   0.00000   0.03977   0.03977   2.06177
   R15        2.02204   0.01586   0.00000   0.03244   0.03244   2.05448
   R16        2.02200   0.01714   0.00000   0.03506   0.03506   2.05706
   R17        2.02190   0.01704   0.00000   0.03485   0.03485   2.05674
   R18        2.02210   0.01683   0.00000   0.03443   0.03443   2.05653
   R19        2.91018   0.01030   0.00000   0.02685   0.02685   2.93703
   R20        2.02199   0.01674   0.00000   0.03425   0.03425   2.05623
   R21        2.02200   0.01625   0.00000   0.03324   0.03324   2.05523
   R22        2.02198   0.01667   0.00000   0.03410   0.03410   2.05608
   R23        2.02200   0.01757   0.00000   0.03593   0.03593   2.05793
   R24        2.02200   0.01697   0.00000   0.03472   0.03472   2.05672
   R25        2.02206   0.01679   0.00000   0.03435   0.03435   2.05641
   R26        2.02200   0.01658   0.00000   0.03391   0.03391   2.05591
   R27        2.02200   0.01679   0.00000   0.03434   0.03434   2.05634
    A1        1.91088  -0.01138   0.00000  -0.03333  -0.03333   1.87755
    A2        1.91061   0.00274   0.00000   0.02617   0.02643   1.93704
    A3        1.91055   0.00307   0.00000   0.02853   0.02878   1.93933
    A4        1.91075   0.00148   0.00000   0.01585   0.01630   1.92706
    A5        1.91064  -0.00196   0.00000  -0.01869  -0.01957   1.89107
    A6        1.91062  -0.00267   0.00000  -0.02631  -0.02723   1.88339
    A7        1.91063  -0.00267   0.00000  -0.02555  -0.02656   1.88407
    A8        1.91067   0.00948   0.00000   0.03546   0.03527   1.94594
    A9        1.91060   0.00008   0.00000   0.01271   0.01235   1.92295
   A10        1.91063  -0.00630   0.00000  -0.03349  -0.03346   1.87717
   A11        1.91065  -0.00310   0.00000  -0.00298  -0.00353   1.90712
   A12        1.91059  -0.00036   0.00000   0.00166   0.00203   1.91263
   A13        1.91065   0.00020   0.00000  -0.01337  -0.01339   1.89726
   A14        1.91063   0.00092   0.00000   0.00209   0.00207   1.91270
   A15        1.91064   0.00640   0.00000   0.02827   0.02807   1.93872
   A16        1.91062   0.00340   0.00000   0.01567   0.01548   1.92610
   A17        1.91064  -0.00420   0.00000  -0.02018  -0.02020   1.89044
   A18        1.91063  -0.00256   0.00000  -0.01260  -0.01260   1.89803
   A19        1.91064  -0.00395   0.00000  -0.01326  -0.01361   1.89703
   A20        1.91059   0.00968   0.00000   0.03649   0.03626   1.94685
   A21        1.91067   0.00000   0.00000   0.01303   0.01258   1.92325
   A22        1.91063  -0.00631   0.00000  -0.03388  -0.03384   1.87680
   A23        1.91064  -0.00284   0.00000  -0.00080  -0.00142   1.90922
   A24        1.91065  -0.00056   0.00000   0.00034   0.00074   1.91139
   A25        1.91062   0.00004   0.00000  -0.01518  -0.01519   1.89543
   A26        1.91062   0.00083   0.00000   0.00184   0.00182   1.91244
   A27        1.91065   0.00684   0.00000   0.03004   0.02984   1.94048
   A28        1.91061   0.00328   0.00000   0.01515   0.01496   1.92557
   A29        1.91058  -0.00438   0.00000  -0.02093  -0.02096   1.88962
   A30        1.91072  -0.00240   0.00000  -0.01165  -0.01165   1.89907
   A31        1.91063  -0.00417   0.00000  -0.01445  -0.01481   1.89582
   A32        1.91065   0.02231   0.00000   0.08065   0.08047   1.99112
   A33        1.91064  -0.00946   0.00000  -0.04040  -0.04158   1.86906
   A34        1.91062  -0.00788   0.00000  -0.02896  -0.03036   1.88026
   A35        1.91062  -0.00310   0.00000   0.00386   0.00467   1.91530
   A36        1.91063  -0.00378   0.00000   0.00270   0.00302   1.91365
   A37        1.91065   0.00191   0.00000  -0.01784  -0.01907   1.89157
   A38        1.91063   0.00539   0.00000   0.02417   0.02387   1.93449
   A39        1.91064   0.00345   0.00000   0.01280   0.01268   1.92332
   A40        1.91062   0.00589   0.00000   0.02633   0.02602   1.93664
   A41        1.91062  -0.00494   0.00000  -0.02326  -0.02337   1.88726
   A42        1.91066  -0.00462   0.00000  -0.01581  -0.01628   1.89438
   A43        1.91063  -0.00518   0.00000  -0.02423  -0.02435   1.88628
   A44        1.91063   0.00820   0.00000   0.03690   0.03646   1.94710
   A45        1.91059  -0.00635   0.00000  -0.03061  -0.03048   1.88010
   A46        1.91067   0.00816   0.00000   0.03671   0.03627   1.94694
   A47        1.91067  -0.00311   0.00000  -0.01670  -0.01658   1.89409
   A48        1.91065  -0.00379   0.00000  -0.00960  -0.01049   1.90015
   A49        1.91059  -0.00311   0.00000  -0.01671  -0.01659   1.89400
   A50        3.14170  -0.00535   0.00000  -0.12409  -0.12393   3.01776
   A51        3.14171  -0.00333   0.00000  -0.07704  -0.07700   3.06471
    D1        2.09397   0.00029   0.00000   0.01534   0.01580   2.10977
    D2       -2.09483  -0.00040   0.00000  -0.01698  -0.01757  -2.11240
    D3       -0.00044   0.00016   0.00000   0.00288   0.00301   0.00257
    D4        1.04695   0.00265   0.00000   0.01593   0.01672   1.06367
    D5        3.14137  -0.00003   0.00000  -0.00068  -0.00068   3.14069
    D6       -1.04748  -0.00273   0.00000  -0.01740  -0.01820  -1.06568
    D7        1.04682   0.00037   0.00000  -0.00561  -0.00579   1.04103
    D8        3.14124   0.00243   0.00000   0.02025   0.02046  -3.12149
    D9       -1.04755  -0.00113   0.00000  -0.00885  -0.00863  -1.05618
   D10       -1.04746  -0.00388   0.00000  -0.04513  -0.04531  -1.09278
   D11        1.04696  -0.00181   0.00000  -0.01928  -0.01906   1.02790
   D12        3.14135  -0.00538   0.00000  -0.04838  -0.04815   3.09320
   D13        3.14134   0.00222   0.00000   0.01371   0.01328  -3.12857
   D14       -1.04743   0.00428   0.00000   0.03957   0.03953  -1.00790
   D15        1.04697   0.00072   0.00000   0.01047   0.01044   1.05741
   D16        1.04733  -0.00087   0.00000  -0.01184  -0.01221   1.03512
   D17       -3.14146   0.00157   0.00000   0.01751   0.01755  -3.12391
   D18       -1.04706  -0.00224   0.00000  -0.01385  -0.01381  -1.06087
   D19       -3.14153   0.00317   0.00000   0.02624   0.02587  -3.11566
   D20       -1.04714   0.00561   0.00000   0.05559   0.05563  -0.99151
   D21        1.04726   0.00180   0.00000   0.02423   0.02427   1.07153
   D22       -1.04715  -0.00293   0.00000  -0.03307  -0.03316  -1.08031
   D23        1.04724  -0.00049   0.00000  -0.00373  -0.00340   1.04385
   D24       -3.14154  -0.00431   0.00000  -0.03509  -0.03475   3.10689
   D25       -3.14157  -0.00009   0.00000  -0.00104  -0.00117   3.14045
   D26        1.04722  -0.00416   0.00000  -0.03042  -0.02960   1.01762
   D27       -1.04718   0.00412   0.00000   0.03391   0.03326  -1.01393
   D28        1.04719  -0.00271   0.00000  -0.02669  -0.02653   1.02065
   D29       -1.04721  -0.00678   0.00000  -0.05606  -0.05497  -1.10218
   D30        3.14157   0.00150   0.00000   0.00827   0.00789  -3.13372
   D31       -1.04721   0.00295   0.00000   0.02796   0.02752  -1.01969
   D32        3.14158  -0.00112   0.00000  -0.00142  -0.00092   3.14066
   D33        1.04718   0.00716   0.00000   0.06291   0.06194   1.10912
   D34        3.14150   0.00212   0.00000   0.02041   0.02038  -3.12131
   D35        1.04709   0.00278   0.00000   0.02652   0.02657   1.07366
   D36       -1.04731   0.00162   0.00000   0.01585   0.01572  -1.03158
   D37        1.04711  -0.00189   0.00000  -0.01506  -0.01507   1.03204
   D38       -1.04730  -0.00122   0.00000  -0.00894  -0.00887  -1.05617
   D39        3.14149  -0.00238   0.00000  -0.01961  -0.01972   3.12177
   D40       -1.04730  -0.00002   0.00000   0.00213   0.00219  -1.04510
   D41        3.14148   0.00065   0.00000   0.00824   0.00839  -3.13332
   D42        1.04708  -0.00051   0.00000  -0.00243  -0.00246   1.04462
   D43       -3.14156   0.00219   0.00000   0.02189   0.02189  -3.11967
   D44        1.04729   0.00285   0.00000   0.02801   0.02808   1.07538
   D45       -1.04709   0.00177   0.00000   0.01803   0.01792  -1.02916
   D46        1.04721  -0.00199   0.00000  -0.01592  -0.01595   1.03126
   D47       -1.04712  -0.00133   0.00000  -0.00980  -0.00976  -1.05688
   D48       -3.14150  -0.00241   0.00000  -0.01978  -0.01992   3.12177
   D49       -1.04718   0.00004   0.00000   0.00295   0.00301  -1.04417
   D50       -3.14151   0.00070   0.00000   0.00907   0.00921  -3.13230
   D51        1.04730  -0.00038   0.00000  -0.00091  -0.00095   1.04634
   D52       -1.04728  -0.00012   0.00000  -0.00136  -0.00146  -1.04875
   D53        3.14152   0.00051   0.00000   0.00449   0.00448  -3.13719
   D54        1.04713   0.00113   0.00000   0.01020   0.01027   1.05740
   D55        1.04712   0.00005   0.00000   0.00091   0.00123   1.04835
   D56       -1.04727   0.00069   0.00000   0.00676   0.00718  -1.04009
   D57        3.14153   0.00131   0.00000   0.01247   0.01297  -3.12868
   D58        3.14152  -0.00182   0.00000  -0.01692  -0.01742   3.12410
   D59        1.04713  -0.00118   0.00000  -0.01108  -0.01147   1.03566
   D60       -1.04725  -0.00056   0.00000  -0.00537  -0.00568  -1.05293
         Item               Value     Threshold  Converged?
 Maximum Force            0.030185     0.000450     NO 
 RMS     Force            0.008199     0.000300     NO 
 Maximum Displacement     0.307075     0.001800     NO 
 RMS     Displacement     0.092707     0.001200     NO 
 Predicted change in Energy=-1.791359D-02
 GradGradGradGradGradGradGradGradGradGradGradGradGradGradGradGradGradGrad

                          Input orientation:                          
 ---------------------------------------------------------------------
 Center     Atomic      Atomic             Coordinates (Angstroms)
 Number     Number       Type             X           Y           Z
 ---------------------------------------------------------------------
      1         79           0        0.147225    0.038045    0.008274
      2         16           0       -0.054634   -0.026158    2.334918
      3         15           0        0.026057    0.017205   -2.356388
      4          6           0       -0.545109   -1.622911   -2.973607
      5          6           0       -1.946520   -1.980034   -2.421548
      6          6           0       -1.137857    1.306798   -2.973091
      7          6           0       -0.704454    2.724393   -2.526303
      8          6           0        1.684562    0.352088   -3.088126
      9          6           0        1.702923    0.356460   -4.642221
     10          1           0       -0.576610   -1.624425   -4.064050
     11          1           0        0.177412   -2.367419   -2.644219
     12          1           0       -2.244046   -2.960889   -2.787985
     13          1           0       -2.690650   -1.254488   -2.743776
     14          1           0       -1.930226   -2.003214   -1.333428
     15          1           0       -1.195796    1.272115   -4.062042
     16          1           0       -2.120751    1.082420   -2.566216
     17          1           0       -1.424054    3.456712   -2.888005
     18          1           0        0.274303    2.981022   -2.927242
     19          1           0       -0.661113    2.781777   -1.440413
     20          1           0        2.359631   -0.415307   -2.714797
     21          1           0        2.022256    1.316534   -2.715776
     22          1           0        1.384777   -0.606721   -5.035762
     23          1           0        2.710031    0.555188   -5.005791
     24          1           0        1.043184    1.126696   -5.037228
     25          6           0        1.593750    0.302792    3.039665
     26          1           0        1.964110    1.284066    2.749613
     27          1           0        1.502271    0.274361    4.123380
     28          1           0        2.316805   -0.450769    2.733977
 ---------------------------------------------------------------------
                    Distance matrix (angstroms):
                    1          2          3          4          5
     1  Au   0.000000
     2  S    2.336266   0.000000
     3  P    2.367856   4.692200   0.000000
     4  C    3.482774   5.565126   1.843142   0.000000
     5  C    3.789518   5.479127   2.807894   1.547985   0.000000
     6  C    3.485644   5.578988   1.843385   2.989070   3.429489
     7  C    3.790238   5.623101   2.809161   4.373159   4.866758
     8  C    3.471270   5.707651   1.843427   2.980800   4.366678
     9  C    4.914132   7.205267   2.855172   3.428678   4.869192
    10  H    4.457754   6.616170   2.444232   1.090898   2.168161
    11  H    3.580906   5.507009   2.406696   1.088497   2.170422
    12  H    4.746667   6.296849   3.769442   2.170491   1.088520
    13  H    4.159081   5.852393   3.024528   2.189042   1.088108
    14  H    3.206666   4.569831   2.992588   2.180222   1.088488
    15  H    4.460282   6.626377   2.444787   3.160579   3.719044
    16  H    3.586424   5.433130   2.405722   3.157124   3.070816
    17  H    4.748119   6.425311   3.770364   5.155816   5.481675
    18  H    4.158668   6.069733   3.028483   4.676514   5.458924
    19  H    3.206271   4.743990   2.992336   4.665342   5.028891
    20  H    3.537709   5.610680   2.400227   3.156391   4.591002
    21  H    3.545522   5.623682   2.408781   3.911288   5.167699
    22  H    5.233503   7.532323   3.068297   3.001597   4.451701
    23  H    5.654755   7.865579   3.809524   4.412461   5.898230
    24  H    5.238797   7.542070   3.074479   3.787023   5.043004
    25  C    3.369251   1.822648   5.626420   6.666520   6.897075
    26  H    3.516898   2.442127   5.606445   6.892165   7.258669
    27  H    4.338905   2.390160   6.650769   7.626181   7.733857
    28  H    3.517879   2.441980   5.601637   6.491609   6.862509
                    6          7          8          9         10
     6  C    0.000000
     7  C    1.548236   0.000000
     8  C    2.981737   3.413337   0.000000
     9  C    3.429165   3.984932   1.554210   0.000000
    10  H    3.177618   4.614459   3.157837   3.074811   0.000000
    11  H    3.916370   5.168959   3.140744   3.706577   1.771019
    12  H    4.412603   5.895868   5.147802   5.479194   2.488940
    13  H    3.003986   4.452388   4.673558   5.050023   2.519750
    14  H    3.777899   5.027498   4.657585   5.451233   3.071164
    15  H    1.091043   2.170028   3.176700   3.094770   2.961983
    16  H    1.087185   2.168770   3.909754   4.411043   3.457584
    17  H    2.170548   1.088551   4.397980   4.739918   5.283862
    18  H    2.190736   1.088382   2.987642   3.445349   4.819391
    19  H    2.179898   1.088268   3.757730   4.660730   5.128863
    20  H    3.907018   4.391112   1.088113   2.177580   3.450213
    21  H    3.170588   3.074559   1.087583   2.175984   4.149843
    22  H    3.778869   4.664610   2.191455   1.088030   2.413915
    23  H    4.416223   4.744683   2.184096   1.089009   4.054577
    24  H    3.008328   3.451321   2.193258   1.088370   3.337586
    25  C    6.680041   6.490446   6.128662   7.682849   7.673812
    26  H    6.509382   6.085315   5.918270   7.454386   7.832022
    27  H    7.641735   7.422303   7.214229   8.768282   8.658011
    28  H    6.898867   6.846912   5.911108   7.445587   7.480808
                   11         12         13         14         15
    11  H    0.000000
    12  H    2.497266   0.000000
    13  H    3.078036   1.764431   0.000000
    14  H    2.508576   1.769565   1.768592   0.000000
    15  H    4.140306   4.543168   3.218095   4.325795   0.000000
    16  H    4.145965   4.051263   2.411939   3.328243   1.768904
    17  H    6.045215   6.470548   4.880622   5.699448   2.490568
    18  H    5.356800   6.455059   5.173408   5.678274   2.523752
    19  H    5.354110   6.107360   4.702043   4.951589   3.072118
    20  H    2.928789   5.261102   5.119610   4.778337   4.159751
    21  H    4.120689   6.041763   5.368652   5.343569   3.488591
    22  H    3.205818   4.874728   4.720371   5.162045   3.337291
    23  H    4.531315   6.467174   6.128539   6.446987   4.081682
    24  H    4.322603   5.707305   4.987131   5.688201   2.446460
    25  C    6.437591   7.703363   7.364061   6.071245   7.691255
    26  H    6.754187   8.148202   7.634681   6.530182   7.508914
    27  H    7.384758   8.501100   8.189982   6.837115   8.676187
    28  H    6.097175   7.589080   7.465008   6.082034   7.841720
                   16         17         18         19         20
    16  H    0.000000
    17  H    2.495234   0.000000
    18  H    3.077549   1.764153   0.000000
    19  H    2.507148   1.770067   1.767869   0.000000
    20  H    4.726424   5.416531   3.991087   4.579334   0.000000
    21  H    4.152311   4.060428   2.422927   3.312696   1.764397
    22  H    4.608750   5.386453   4.307076   5.347347   2.524651
    23  H    5.437458   5.476724   4.017188   5.388342   2.512627
    24  H    4.014766   4.016889   2.912343   4.310568   3.082936
    25  C    6.769877   7.361496   6.672168   5.594718   5.849451
    26  H    6.707069   6.926960   6.161313   5.166357   5.736207
    27  H    7.650487   8.237127   7.651483   6.474810   6.926137
    28  H    7.080581   7.801866   6.928088   6.061591   5.449058
                   21         22         23         24         25
    21  H    0.000000
    22  H    3.080199   0.000000
    23  H    2.509352   1.762733   0.000000
    24  H    2.526610   1.766755   1.762381   0.000000
    25  C    5.859726   8.129170   8.126447   8.137453   0.000000
    26  H    5.465794   8.032606   7.825212   7.842688   1.088207
    27  H    6.937620   9.202174   9.212997   9.211622   1.087941
    28  H    5.736718   7.826995   7.814767   8.031322   1.088168
                   26         27         28
    26  H    0.000000
    27  H    1.766363   0.000000
    28  H    1.770393   1.766273   0.000000
 Stoichiometry    C7H18AuPS
 Framework group  C1[X(C7H18AuPS)]
 Deg. of freedom    78
 Full point group                 C1      NOp   1
 Largest Abelian subgroup         C1      NOp   1
 Largest concise Abelian subgroup C1      NOp   1
                         Standard orientation:                         
 ---------------------------------------------------------------------
 Center     Atomic      Atomic             Coordinates (Angstroms)
 Number     Number       Type             X           Y           Z
[...]
 5,0.00001830,-0.00008281,0.00029576,0.00080626,0.00046361,0.00001490,-
 0.00024693,0.00026259,-0.00014629,0.00012617,-0.00005938,0.00000050,-0
 .00001793,0.00001538,0.00013064,0.00003181,0.00002783,0.00064633,0.003
 25303,0.00135403,-0.07580659,-0.07031040,-0.03550887,-0.00053337,-0.00
 045959,0.00047956,-0.00001644,0.00002866,-0.00011581,0.00005021,0.0000
 2690,-0.00000393,-0.00000240,-0.00001275,0.00001641,0.00005426,0.00001
 685,-0.00001806,-0.00000813,0.00009267,-0.00004516,-0.00001882,-0.0000
 2377,-0.00000951,-0.00001277,-0.00003078,0.00000031,-0.00004932,-0.000
 10839,-0.00007134,-0.00006431,-0.00002333,0.00000675,-0.00012315,-0.00
 031979,-0.00031959,0.00087260,0.00021137,0.00068742,0.07701072,0.00018
 733,0.00007261,0.00000132,-0.00004088,-0.00001059,-0.00000395,-0.00078
 881,-0.00044984,-0.00040910,-0.00057062,-0.00004502,-0.00051752,0.0001
 3811,0.00010207,0.00042392,0.00015953,0.00009669,-0.00012590,-0.000220
 41,-0.00003096,0.00006011,0.00220719,0.00432821,0.00106501,-0.06989370
 ,-0.24361781,-0.09444490,-0.00001906,0.00009310,0.00096736,0.00005321,
 -0.00010654,0.00004472,0.00004426,0.00002561,-0.00003149,-0.00000141,-
 0.00000267,-0.00002390,-0.00013346,-0.00005153,0.00005333,-0.00004234,
 -0.00013529,0.00004121,0.00004501,-0.00001266,-0.00000865,0.00003509,0
 .00002428,-0.00000658,0.00007584,0.00014597,0.00008004,0.00008146,0.00
 004652,-0.00002290,0.00008662,0.00063611,-0.00055941,-0.00002304,0.001
 36260,0.00119829,0.07854468,0.26150723,0.00012300,0.00026535,0.0000028
 4,-0.00001295,-0.00001624,0.00002745,-0.00159933,-0.00165116,0.0000181
 9,-0.00013261,-0.00009973,-0.00008819,0.00017702,0.00026463,0.00038294
 ,0.00032921,0.00020305,-0.00003001,-0.00008765,-0.00000214,0.00006216,
 -0.01003952,-0.02920197,-0.01459692,-0.03475218,-0.09345967,-0.0946742
 4,0.00092445,0.00049008,0.00055816,0.00001552,0.00021475,-0.00019199,0
 .00005035,0.00000376,-0.00003113,-0.00009846,-0.00001282,0.00001200,-0
 .00018285,-0.00009022,0.00004080,0.00006693,-0.00006353,0.00003093,0.0
 0006949,-0.00008042,0.00006818,0.00005454,0.00003366,0.00000533,-0.000
 01236,0.00005743,-0.00009341,-0.00004784,0.00002193,0.00001496,-0.0002
 2656,0.00028756,0.00136148,0.00070587,0.00111935,-0.00675637,0.0374785
 4,0.10322453,0.10465704,-0.00002270,-0.00001917,-0.00010116,0.00002004
 ,0.00000756,0.00006247,0.00136207,0.00028682,-0.00090418,0.00002509,0.
 00005154,-0.00009659,0.00004296,0.00000755,0.00009661,0.00004787,-0.00
 007370,-0.00015721,-0.00002922,-0.00007001,0.00006037,0.00053635,0.000
 07480,0.00068224,-0.28926740,-0.03838673,0.06778138,0.00010464,0.00012
 697,0.00012505,-0.00000842,-0.00001607,0.00002339,-0.00000521,-0.00000
 921,-0.00000629,-0.00000267,0.00000536,-0.00000385,-0.00004402,-0.0000
 1280,0.00000993,0.00024138,-0.00005664,0.00019596,-0.00001272,-0.00000
 848,0.00014081,-0.00001349,0.00002248,-0.00000522,-0.00002232,-0.00004
 583,-0.00002435,0.00000614,0.00004020,0.00002201,0.00061667,-0.0002172
 4,0.00030354,0.00042862,0.00033039,0.00034008,-0.00882776,-0.00104488,
 0.00183386,0.31145194,-0.00006524,0.00008510,-0.00002420,0.00002006,-0
 .00002456,0.00001549,0.00033775,-0.00021821,0.00006274,-0.00021184,0.0
 0012426,-0.00023279,0.00009796,0.00006644,0.00024247,0.00013613,0.0001
 1623,0.00017262,-0.00003905,0.00008316,-0.00005613,-0.00117625,-0.0004
 0502,0.00067342,-0.03846745,-0.05556315,0.01068983,0.00027943,0.000061
 57,0.00028085,0.00003242,0.00003513,-0.00001522,0.00001219,0.00000539,
 -0.00001958,-0.00003235,-0.00000299,-0.00000154,-0.00010254,-0.0000382
 8,0.00001067,-0.00024461,-0.00007089,-0.00021882,-0.00001092,0.0000190
 3,-0.00015859,0.00000482,0.00001289,0.00000563,0.00004437,0.00005645,0
 .00004334,0.00000998,-0.00002272,-0.00002696,-0.00035470,-0.00005152,0
 .00002796,0.00051601,0.00020955,-0.00006057,-0.02806191,-0.00376132,0.
 00833406,0.04218524,0.05456222,0.00125174,0.00021548,0.00009826,-0.000
 38921,-0.00006961,-0.00011354,-0.00102150,0.00002630,-0.00536001,-0.00
 021852,-0.00034316,-0.00029561,0.00006318,0.00020147,0.00021387,-0.000
 35493,0.00019856,-0.00023327,0.00011611,0.00002045,0.00009549,0.032199
 72,0.00530689,-0.01378968,0.06839579,0.01075480,-0.06550059,0.00015517
 ,0.00014515,0.00033768,0.00001274,0.00002789,-0.00000020,0.00007263,0.
 00003902,0.00002649,-0.00001775,-0.00002302,-0.00001644,-0.00009280,-0
 .00007725,0.00008224,0.00016504,-0.00010194,0.00035697,-0.00001787,-0.
 00004666,0.00019731,-0.00001481,-0.00005968,0.00000093,-0.00005555,-0.
 00004438,-0.00002020,-0.00002159,0.00007209,0.00003060,-0.00019192,0.0
 0027265,0.00152851,-0.00005012,-0.00041938,0.00152069,-0.01392607,-0.0
 0094721,0.00383647,-0.07457623,-0.01210791,0.07413507,0.00006271,0.000
 07783,0.00006483,-0.00001341,-0.00002456,-0.00007912,0.00013203,-0.000
 64489,0.00047085,-0.00002210,-0.00001251,-0.00002120,-0.00002395,0.000
 03439,-0.00000176,-0.00030792,0.00023049,0.00021291,0.00016398,0.00011
 327,-0.00002578,0.00200584,-0.00347038,0.00077678,-0.12963937,0.110053
 38,-0.05247600,0.00003500,-0.00002222,-0.00002248,0.00000638,0.0000484
 3,-0.00003946,0.00001329,0.00001380,0.00000209,-0.00000809,-0.00000808
 ,0.00000312,0.00000284,-0.00000217,0.00000710,-0.00068112,0.00002844,0
 .00061914,0.00009534,-0.00019265,-0.00000426,-0.00003482,-0.00003869,0
 .00001329,-0.00006759,0.00000260,-0.00002171,-0.00003641,-0.00006644,-
 0.00001179,0.00091160,-0.00039098,0.00088920,-0.00016122,0.00013601,-0
 .00044401,0.00652060,-0.00887990,0.00535916,-0.01662909,0.02509102,-0.
 01147952,0.13768054,-0.00021883,0.00005745,0.00000728,0.00004282,-0.00
 000417,-0.00002204,0.00114425,-0.00053793,0.00038025,-0.00034502,0.000
 02089,0.00012751,0.00003280,0.00001530,-0.00002454,0.00056303,0.000118
 23,0.00048971,0.00015625,0.00023479,-0.00018505,-0.00127530,0.00045685
 ,0.00073556,0.10964485,-0.20149722,0.07036504,0.00010516,-0.00019706,0
 .00001487,0.00003695,0.00017760,-0.00014785,-0.00001213,-0.00000375,0.
 00000403,-0.00006312,0.00000007,0.00002002,-0.00000976,0.00000179,0.00
 000238,-0.00043061,0.00017647,-0.00068691,-0.00004812,-0.00001932,-0.0
 0032853,0.00000740,0.00000453,0.00000966,-0.00006348,-0.00009887,-0.00
 001545,-0.00008007,-0.00008960,-0.00002006,-0.00018883,0.00136072,-0.0
 0031431,-0.00028436,0.00060037,0.00037728,0.01654130,-0.02021982,0.010
 17415,-0.00317701,0.00471407,-0.00304006,-0.12207643,0.21472849,0.0001
 7185,-0.00021948,-0.00000502,-0.00000383,0.00000740,0.00001589,-0.0020
 7787,0.00111909,0.00023749,0.00032056,-0.00006414,-0.00005649,-0.00000
 221,0.00007833,0.00007325,0.00022916,0.00009566,-0.00002309,0.00047791
 ,-0.00000682,0.00007407,-0.01831548,0.02614327,-0.01225979,-0.05169468
 ,0.06978752,-0.08223818,0.00004459,0.00006413,0.00003176,-0.00007103,-
 0.00014664,-0.00004859,0.00003714,0.00000281,-0.00000815,0.00003443,0.
 00000514,0.00000167,-0.00001338,-0.00001018,0.00000662,0.00094652,-0.0
 0015515,0.00036111,-0.00002329,-0.00009192,0.00030966,-0.00010542,-0.0
 0003978,0.00002607,-0.00021660,-0.00045104,-0.00028058,-0.00019552,0.0
 0005678,0.00007638,0.00090844,-0.00022652,-0.00686822,-0.00018708,-0.0
 0034600,0.00134814,0.00933141,-0.01003798,0.00538152,0.00417743,-0.007
 64697,0.00311540,0.05623152,-0.07793685,0.09072124,0.00116095,0.000405
 68,-0.00387530,-0.12256010,-0.01763818,-0.02059161,-0.00050565,-0.0001
 6435,-0.00135350,0.00000249,-0.00016759,0.00033379,-0.00004389,0.00006
 894,-0.00005971,-0.00011018,0.00009913,0.00025664,0.00008359,0.0000134
 9,-0.00002264,0.00022938,0.00003123,0.00071570,-0.00033854,-0.00002535
 ,-0.00003905,0.00006233,0.00012303,0.00009850,-0.00000208,-0.00000714,
 -0.00004205,0.00002653,0.00003406,0.00005131,0.00000004,-0.00002041,0.
 00001058,-0.00005040,-0.00008407,0.00002392,0.00007767,-0.00010071,0.0
 0007513,-0.00003066,-0.00000678,-0.00003709,0.00001653,-0.00004823,0.0
 0003819,-0.00003577,0.00000931,0.00001791,-0.00001560,0.00009110,0.000
 01795,0.00002760,0.00004108,0.00001179,0.00007150,-0.00001463,-0.00000
 390,0.00002774,0.00000831,-0.00000221,-0.00004782,-0.00001421,0.000153
 50,0.00002850,0.00000041,-0.00001150,0.37415211,0.00034505,-0.00118527
 ,-0.00077833,-0.01762271,-0.03270932,-0.00390267,-0.00013246,0.0004913
 8,-0.00028699,-0.00006470,-0.00002185,-0.00007942,0.00000749,-0.000015
 73,0.00006106,-0.00003719,0.00001476,0.00023679,-0.00000274,0.00004453
 ,0.00002301,0.00004228,0.00004587,0.00014633,-0.00004158,-0.00012016,-
 0.00001179,0.00003609,-0.00002427,-0.00001573,0.00000593,-0.00005110,-
 0.00001083,0.00000398,0.00001005,-0.00001504,-0.00000514,0.00000614,-0
 .00003094,0.00001160,0.00000718,-0.00000094,0.00002053,-0.00008517,0.0
 0005403,-0.00003252,-0.00000323,-0.00004905,-0.00001530,-0.00001504,-0
 .00003161,-0.00002310,-0.00001325,0.00006092,0.00007714,0.00003181,-0.
 00004570,0.00009279,-0.00002123,-0.00004797,-0.00005955,-0.00004278,0.
 00003318,0.00000321,0.00000424,-0.00002228,-0.00001023,0.00000684,0.00
 002705,0.00000725,0.00000002,0.00002258,-0.03357826,0.54630482,-0.0161
 0692,-0.00304700,-0.00479446,-0.01180777,-0.00227130,-0.04268098,0.004
 19668,0.00083928,-0.00109194,-0.00011021,0.00008637,0.00024349,-0.0000
 4968,-0.00015708,0.00008859,-0.00010865,-0.00012219,0.00031075,0.00003
 696,-0.00005001,-0.00001772,-0.00051585,-0.00005515,-0.00164305,0.0006
 2722,0.00007452,0.00007047,0.00000744,0.00003164,0.00002133,0.00000589
 ,0.00001620,0.00000137,-0.00002665,-0.00001616,-0.00004284,0.00000223,
 0.00000371,0.00001244,-0.00002352,0.00005042,-0.00007297,-0.00000110,-
 0.00005923,0.00004120,-0.00005808,0.00007099,-0.00001495,-0.00000246,0
 .00002099,0.00000548,-0.00000664,-0.00001508,-0.00000196,-0.00001667,-
 0.00001462,0.00001177,-0.00003995,-0.00003721,0.00002139,-0.00006881,0
 .00001151,0.00002255,-0.00001702,-0.00002245,-0.00000604,0.00002073,0.
 00001033,-0.00023906,-0.00002298,0.00001660,0.00000117,-0.07211845,-0.
 01374418,0.52807764,0.00079559,0.00021856,0.00061629,-0.01734012,-0.01
 857033,0.00265057,-0.00028294,-0.00018816,0.00031871,-0.00000263,0.000
 06101,-0.00026177,0.00003432,0.00001243,0.00001444,0.00004783,-0.00001
 007,-0.00008193,-0.00004115,0.00001492,-0.00002159,-0.00002190,-0.0000
 0112,0.00000949,0.00002195,-0.00001242,0.00001429,-0.00002779,-0.00008
 218,-0.00005666,0.00000730,0.00000220,0.00001679,-0.00000504,-0.000006
 14,-0.00000309,-0.00000888,0.00000658,-0.00000809,0.00000860,0.0000106
 7,0.00001350,-0.00003249,0.00004152,-0.00001774,0.00000086,0.00000104,
 -0.00000028,-0.00000706,0.00001812,-0.00001834,0.00001399,-0.00000450,
 -0.00000454,0.00000033,-0.00003317,-0.00002197,0.00000310,-0.00000464,
 -0.00000352,-0.00001057,-0.00000576,-0.00001393,-0.00000740,0.00000243
 ,0.00000101,0.00001156,0.00000277,-0.00001498,-0.00000866,-0.00000102,
 -0.00000071,-0.06809463,-0.07802094,0.03534534,0.07617643,0.00025371,0
 .00042725,0.00046487,-0.00229719,0.00223442,-0.00172001,-0.00009943,-0
 .00015261,0.00014013,0.00002638,0.00001818,-0.00010842,0.00001519,0.00
 001001,-0.00000355,0.00001898,0.00000599,-0.00004657,-0.00002742,0.000
 00653,0.00002154,-0.00001310,-0.00001710,-0.00003046,0.00002965,0.0000
 0552,0.00000248,-0.00002169,-0.00002276,-0.00002633,-0.00000394,0.0000
 1203,0.00001501,-0.00000064,0.00000175,0.00000288,-0.00000537,0.000002
 18,-0.00000916,0.00001774,0.00000513,0.00000507,-0.00000986,0.00000495
 ,-0.00000835,0.00000491,0.00000332,-0.00000898,0.00000130,0.00000546,-
 0.00000897,0.00000681,0.00000147,-0.00000726,0.00001195,-0.00000700,0.
 00000195,-0.00000530,-0.00002029,-0.00000780,-0.00001592,0.00002271,-0
 .00001482,-0.00000164,0.00000186,0.00000900,0.00000590,0.00000046,-0.0
 0001722,-0.00000245,-0.00000193,0.00000509,-0.07118384,-0.26569030,0.0
 8438590,0.07911981,0.28065903,-0.00013465,-0.00108538,0.00016033,-0.00
 767938,-0.00825886,0.00230838,-0.00010346,0.00032537,-0.00006013,0.000
 00702,-0.00005079,0.00008570,-0.00001400,0.00001695,0.00001080,0.00000
 158,0.00000252,-0.00004889,0.00000424,-0.00000970,-0.00001818,0.000028
 59,-0.00003003,0.00006099,-0.00001791,0.00000014,-0.00000949,0.0000182
 2,0.00003733,0.00001867,-0.00000462,-0.00001059,-0.00000494,0.00000691
 ,0.00000671,0.00000833,0.00000230,-0.00000409,-0.00000473,-0.00000910,
 -0.00001825,0.00000927,-0.00000898,0.00001000,-0.00000616,0.00000118,-
 0.00000175,0.00000011,0.00000651,-0.00000313,0.00000809,0.00000175,0.0
 0000315,-0.00001223,-0.00002855,0.00000027,-0.00000286,0.00000955,-0.0
 0000653,-0.00001052,-0.00000340,0.00001944,-0.00001537,0.00000450,0.00
 000372,0.00000658,-0.00000517,-0.00000298,0.00001025,0.00000187,-0.000
 00273,0.00000472,0.03292564,0.08096152,-0.08110005,-0.03129601,-0.0917
 0455,0.08370820,-0.00402791,-0.00076583,0.00066342,-0.00693269,-0.0018
 1443,-0.02688488,0.00114887,0.00021691,-0.00003320,-0.00001682,0.00009
 108,-0.00012875,0.00001345,-0.00005253,0.00003450,0.00002206,-0.000079
 00,-0.00010065,-0.00002660,-0.00002275,-0.00000109,-0.00023487,-0.0000
 2783,-0.00067693,0.00029385,0.00003681,0.00003796,-0.00002993,-0.00006
 296,-0.00004310,-0.00000034,0.00000706,0.00001085,-0.00002100,-0.00001
 869,-0.00002467,0.00000016,0.00000726,0.00000254,0.00000739,0.00004157
 ,-0.00001935,-0.00004810,0.00004913,-0.00003455,-0.00000173,0.00001797
 ,0.00001082,-0.00000452,0.00002917,-0.00001157,0.00001083,-0.00000491,
 -0.00000886,0.00000281,-0.00003614,0.00000353,-0.00002504,-0.00002693,
 0.00000260,-0.00003908,0.00001438,0.00000562,-0.00001603,-0.00000918,0
 .00000227,0.00002393,0.00000772,-0.00012089,-0.00001809,0.00000369,0.0
 0000502,-0.04137824,0.00174606,0.00293098,0.00033497,0.00136858,0.0101
 9692,0.05011664,-0.00072564,-0.00023102,0.00012836,-0.00144607,0.00045
 107,-0.00498185,0.00019372,0.00012165,0.00000002,0.00000332,0.00001219
 ,-0.00000325,0.00000049,-0.00000796,0.00000298,-0.00000081,-0.00001857
 ,-0.00004248,-0.00000444,-0.00000836,0.00000146,-0.00003909,-0.0000284
 5,-0.00012241,0.00005244,0.00000955,0.00000774,-0.00000225,-0.00000548
 ,-0.00000077,-0.00000115,-0.00000161,0.00000063,-0.00000373,-0.0000036
 5,-0.00000598,0.00000055,0.00000075,0.00000099,0.00000245,0.00001089,-
 0.00000075,-0.00001440,0.00001481,-0.00001197,0.00000016,0.00000506,0.
 00000331,0.00000077,0.00000520,0.00000059,0.00000402,-0.00000142,-0.00
 000482,-0.00000609,-0.00000508,-0.00000187,-0.00000183,-0.00000090,0.0
 0000603,-0.00000940,0.00000422,-0.00000421,-0.00000242,-0.00000167,0.0
 0000093,0.00000446,0.00000090,-0.00002180,-0.00000393,0.00000049,-0.00
 000007,0.00190210,-0.05063658,-0.00451783,-0.00013502,0.00222544,0.030
 25516,0.00039022,0.04738483,-0.00114968,-0.00020132,-0.00005229,-0.003
 10970,-0.00062464,-0.00403029,0.00028469,0.00004296,0.00062154,-0.0000
 1971,0.00001745,-0.00002210,0.00000438,-0.00002258,0.00001346,0.000003
 73,-0.00001057,-0.00001192,-0.00001285,-0.00000188,0.00000204,-0.00005
 930,-0.00000746,-0.00013000,0.00005814,0.00000640,0.00001869,-0.000007
 23,-0.00001395,-0.00001503,0.00000311,0.00000764,0.00000744,-0.0000056
 7,-0.00001147,-0.00001595,0.00000009,0.00000842,0.00000490,0.00000855,
 0.00002384,-0.00001151,-0.00000892,0.00001386,-0.00001346,0.00000229,-
 0.00000155,0.00000979,-0.00000857,0.00001049,-0.00001166,0.00000679,-0
 .00000336,0.00000094,0.00000690,-0.00002231,-0.00000323,-0.00001140,0.
 00000372,0.00000962,-0.00001326,-0.00000938,0.00001107,-0.00000655,-0.
 00000434,-0.00000560,0.00000950,0.00000234,-0.00002609,-0.00000718,0.0
 0000242,-0.00000493,0.00876237,-0.00345362,-0.32130124,0.00080884,-0.0
 0058146,-0.00952297,-0.00616857,0.00439603,0.34301091,0.00089838,-0.00
 009814,0.00075346,-0.02179354,0.00951765,0.00129655,-0.00035538,0.0000
 6451,0.00036404,0.00002832,0.00004431,-0.00011140,0.00001885,0.0000145
 8,-0.00001031,0.00006325,-0.00002850,-0.00028183,-0.00002138,-0.000016
 88,0.00000462,-0.00002761,-0.00000773,-0.00001424,0.00002890,0.0000208
 8,0.00001534,-0.00002464,-0.00004251,-0.00002716,0.00000195,0.00000357
 ,0.00000492,-0.00001163,-0.00001361,-0.00000188,0.00000595,-0.00000187
 ,0.00000517,0.00000209,0.00001081,0.00001210,-0.00005491,0.00008169,-0
 .00006175,0.00001899,-0.00000820,0.00002976,-0.00000176,0.00001124,-0.
 00000067,0.00001728,0.00000191,-0.00001653,-0.00000908,-0.00002769,0.0
 0000640,-0.00001914,-0.00000524,-0.00001579,-0.00000316,0.00001412,-0.
 00000589,-0.00000930,-0.00000138,0.00000333,0.00001356,0.00000318,-0.0
 0002136,-0.00000679,-0.00000484,0.00000263,-0.14275340,0.12724706,0.05
 792794,0.00843443,-0.00719310,-0.00391154,0.00084600,-0.00015843,0.000
 62920,0.15471377,-0.00009436,0.00032127,-0.00018911,-0.00713799,0.0069
 7292,0.00228287,0.00002348,-0.00008382,-0.00000656,-0.00001306,0.00000
 318,-0.00000011,0.00000608,-0.00000814,-0.00000808,-0.00001220,0.00000
 195,0.00001671,0.00000506,-0.00000055,-0.00001036,0.00001005,-0.000003
 85,0.00003275,-0.00002298,-0.00000056,0.00000253,0.00000075,-0.0000066
 9,0.00000112,0.00000890,0.00000710,-0.00000324,-0.00000054,-0.00000081
 ,-0.00000349,-0.00000528,0.00000152,0.00001045,-0.00000760,0.00001259,
 -0.00000101,-0.00000381,0.00000111,0.00000889,-0.00001491,0.00000675,-
 0.00000549,-0.00000190,0.00000009,0.00000153,-0.00000068,-0.00000053,-
 0.00000022,-0.00000721,0.00000353,0.00000245,0.00000382,0.00001997,0.0
 0001703,0.00001154,-0.00001699,0.00000314,-0.00000073,-0.00000138,-0.0
 0000402,-0.00000128,-0.00000103,0.00001147,-0.00000063,0.00000153,-0.0
 0000825,0.12022588,-0.19633236,-0.06148897,0.01756341,-0.01974170,-0.0
 1045291,-0.00110642,0.00070370,0.00043431,-0.12942739,0.20814120,-0.00
 044540,0.00092946,0.00018626,-0.01001814,0.00493097,0.00199557,0.00002
 296,-0.00034880,-0.00006037,0.00000231,0.00000038,-0.00006439,0.000004
 11,0.00001470,-0.00000894,-0.00002095,0.00004252,0.00008882,0.00000333
 ,0.00001480,0.00001404,0.00001448,0.00003431,0.00005083,-0.00001315,-0
 .00000077,-0.00001002,-0.00001044,-0.00000861,-0.00000981,0.00000231,0
 .00000726,-0.00000202,0.00000353,0.00000706,0.00000956,-0.00000309,-0.
 00000465,-0.00000100,-0.00000497,-0.00000765,0.00001001,0.00002098,-0.
 00003653,0.00001790,-0.00000597,0.00000305,-0.00000789,0.00000329,-0.0
 0000815,0.00000140,-0.00000206,0.00000258,-0.00000386,-0.00000158,0.00
 001085,-0.00000025,-0.00001080,-0.00002040,-0.00002040,0.00000277,0.00
 001376,-0.00001392,0.00000127,0.00000273,0.00000689,-0.00000511,0.0000
 0051,0.00000848,0.00000542,-0.00000238,0.00000688,0.05466409,-0.059099
 37,-0.07592241,-0.00798414,0.00924997,0.00441610,0.02035004,-0.0250841
 6,-0.00853216,-0.05657510,0.06935655,0.07784469\\-0.00000234,0.0000065
 0,-0.00000485,0.00000048,0.00000945,0.00000317,0.00000545,-0.00000619,
 0.00000432,0.00000088,-0.00000363,0.00000279,0.00000179,-0.00000282,0.
 00000282,-0.00000565,-0.00000217,0.00000131,-0.00000251,-0.00000018,-0
 .00000358,0.00000080,-0.00000044,0.00000552,-0.00000065,-0.00000295,-0
 .00000668,0.00000258,-0.00000357,0.00000294,0.00000193,-0.00000137,0.0
 0000431,0.00000388,-0.00000387,0.00000578,0.00000221,-0.00000451,0.000
 00259,0.00000243,-0.00000108,0.00000403,0.00000143,-0.00000463,-0.0000
 0205,-0.00000004,-0.00000438,-0.00000363,-0.00000304,-0.00000435,-0.00
 000617,-0.00000259,-0.00000205,-0.00000481,-0.00000247,-0.00000022,-0.
 00000524,0.00000031,0.00000095,-0.00000102,-0.00000195,0.00000103,-0.0
 0000358,0.00000116,-0.00000381,0.00000234,-0.00000023,-0.00000259,0.00
 000095,-0.00000036,-0.00000470,-0.00000088,-0.00000099,0.00000886,0.00
 000034,-0.00000195,0.00001008,-0.00000171,-0.00000068,0.00001172,-0.00
 000036,0.00000014,0.00001092,0.00000133\\\@


 WE'RE IN THE POSITION OF A VISITOR FROM ANOTHER
 DIMENSION WHO COMES TO EARTH AND SEES A CHESS MATCH.
 ASSUMING HE KNOWS IT'S A GAME, HE'S GOT TWO PROBLEMS:
 FIRST, FIGURE OUT THE RULES, AND SECOND, FIGURE OUT HOW TO WIN.
 NINETY PERCENT OF SCIENCE (INCLUDING VIRTUALLY ALL OF CHEMISRY)
 IS IN THAT SECOND CATEGORY.  THEY'RE TRYING TO APPLY
 THE LAWS THAT ARE ALREADY KNOWN.

                     -- SHELDON GLASHOW, 1979
 Job cpu time:       0 days  0 hours 25 minutes 28.2 seconds.
 File lengths (MBytes):  RWF=    171 Int=      0 D2E=      0 Chk=      5 Scr=      1
 Normal termination of Gaussian 09 at Wed Apr 19 14:10:56 2023.
