 Entering Gaussian System, Link 0=g09
 Input=cpx-new-1-r.com
 Output=cpx-new-1-r.log
 Initial command:
 /home/scr/programs/g09/l1.exe "/home/scr/helius/Gau-6990.inp" -scrdir="/home/scr/helius/"
 Entering Link 1 = /home/scr/programs/g09/l1.exe PID=      6992.
  
 Copyright (c) 1988,1990,1992,1993,1995,1998,2003,2009,2013,
            Gaussian, Inc.  All Rights Reserved.
  
 This is part of the Gaussian(R) 09 program.  It is based on
 the Gaussian(R) 03 system (copyright 2003, Gaussian, Inc.),
 the Gaussian(R) 98 system (copyright 1998, Gaussian, Inc.),
 the Gaussian(R) 94 system (copyright 1995, Gaussian, Inc.),
 the Gaussian 92(TM) system (copyright 1992, Gaussian, Inc.),
 the Gaussian 90(TM) system (copyright 1990, Gaussian, Inc.),
 the Gaussian 88(TM) system (copyright 1988, Gaussian, Inc.),
 the Gaussian 86(TM) system (copyright 1986, Carnegie Mellon
 University), and the Gaussian 82(TM) system (copyright 1983,
 Carnegie Mellon University). Gaussian is a federally registered
 trademark of Gaussian, Inc.
  
 This software contains proprietary and confidential information,
 including trade secrets, belonging to Gaussian, Inc.
  
 This software is provided under written license and may be
 used, copied, transmitted, or stored only in accord with that
 written license.
  
 The following legend is applicable only to US Government
 contracts under FAR:
  
                    RESTRICTED RIGHTS LEGEND
  
 Use, reproduction and disclosure by the US Government is
 subject to restrictions as set forth in subparagraphs (a)
 and (c) of the Commercial Computer Software - Restricted
 Rights clause in FAR 52.227-19.
  
 Gaussian, Inc.
 340 Quinnipiac St., Bldg. 40, Wallingford CT 06492
  
  
 ---------------------------------------------------------------
 Warning -- This program may not be used in any manner that
 competes with the business of Gaussian, Inc. or will provide
 assistance to any competitor of Gaussian, Inc.  The licensee
 of this program is prohibited from giving any competitor of
 Gaussian, Inc. access to this program.  By using this program,
 the user acknowledges that Gaussian, Inc. is engaged in the
 business of creating and licensing software in the field of
 computational chemistry and represents and warrants to the
 licensee that it is not a competitor of Gaussian, Inc. and that
 it will not use this program in any manner prohibited above.
 ---------------------------------------------------------------
  

 Cite this work as:
 Gaussian 09, Revision D.01,
 M. J. Frisch, G. W. Trucks, H. B. Schlegel, G. E. Scuseria, 
 M. A. Robb, J. R. Cheeseman, G. Scalmani, V. Barone, B. Mennucci, 
 G. A. Petersson, H. Nakatsuji, M. Caricato, X. Li, H. P. Hratchian, 
 A. F. Izmaylov, J. Bloino, G. Zheng, J. L. Sonnenberg, M. Hada, 
 M. Ehara, K. Toyota, R. Fukuda, J. Hasegawa, M. Ishida, T. Nakajima, 
 Y. Honda, O. Kitao, H. Nakai, T. Vreven, J. A. Montgomery, Jr., 
 J. E. Peralta, F. Ogliaro, M. Bearpark, J. J. Heyd, E. Brothers, 
 K. N. Kudin, V. N. Staroverov, T. Keith, R. Kobayashi, J. Normand, 
 K. Raghavachari, A. Rendell, J. C. Burant, S. S. Iyengar, J. Tomasi, 
 M. Cossi, N. Rega, J. M. Millam, M. Klene, J. E. Knox, J. B. Cross, 
 V. Bakken, C. Adamo, J. Jaramillo, R. Gomperts, R. E. Stratmann, 
 O. Yazyev, A. J. Austin, R. Cammi, C. Pomelli, J. W. Ochterski, 
 R. L. Martin, K. Morokuma, V. G. Zakrzewski, G. A. Voth, 
 P. Salvador, J. J. Dannenberg, S. Dapprich, A. D. Daniels, 
 O. Farkas, J. B. Foresman, J. V. Ortiz, J. Cioslowski, 
 and D. J. Fox, Gaussian, Inc., Wallingford CT, 2013.
 
 ******************************************
 Gaussian 09:  EM64L-G09RevD.01 24-Apr-2013
                20-Jul-2023 
 ******************************************
 %mem=30000MB
 %nprocshared=8
 Will use up to    8 processors via shared memory.
 ----------------------------------------
 # opt freq=noraman b3lyp/gen pseudo=read
 ----------------------------------------
 1/14=-1,18=20,19=15,26=3,38=1/1,3;
 2/9=110,12=2,17=6,18=5,40=1/2;
 3/5=7,11=2,16=1,17=8,25=1,30=1,71=1,74=-5/1,2,3;
 4//1;
 5/5=2,38=5/2;
 6/7=2,8=2,9=2,10=2,28=1/1;
 7//1,2,3,16;
 1/14=-1,18=20,19=15,26=3/3(2);
 2/9=110/2;
 99//99;
 2/9=110/2;
 3/5=7,6=1,11=2,16=1,17=8,25=1,30=1,71=1,74=-5,82=7/1,2,3;
 4/5=5,16=3,69=1/1;
 5/5=2,38=5/2;
 7//1,2,3,16;
 1/14=-1,18=20,19=15,26=3/3(-5);
 2/9=110/2;
 6/7=2,8=2,9=2,10=2,19=2,28=1/1;
 99/9=1/99;
 -------------------
 Title Card Required
 -------------------
 Symbolic Z-matrix:
 Charge =  0 Multiplicity = 1
 Au                   -0.25461  -0.60052   0.24643 
 S                     1.8253   -1.53658   0.74202 
 C                    -3.48442  -0.75359  -1.155 
 C                    -3.72578  -2.10294  -0.46394 
 C                    -3.27185   0.92104   1.24025 
 C                    -2.52896   1.95483   2.09708 
 H                    -4.43122  -0.21857  -1.30076 
 H                    -3.04626  -0.91304  -2.14787 
 H                    -4.39519  -2.72324  -1.06984 
 H                    -4.19144  -1.97969   0.51986 
 H                    -2.78693  -2.64939  -0.32662 
 H                    -4.23913   1.31348   0.9019 
 H                    -3.4804    0.02412   1.83471 
 H                    -3.12943   2.22188   2.97343 
 H                    -2.32869   2.87657   1.53988 
 H                    -1.57081   1.55974   2.45048 
 C                     2.93878  -0.18101   0.31314 
 C                     3.25449   0.80383   1.25712 
 C                     3.53873  -0.12722  -0.97051 
 C                     4.13061   1.84774   0.95925 
 H                     2.79214   0.74103   2.23815 
 C                     4.42019   0.93164  -1.2598 
 N                     3.30236  -1.11937  -1.91597 
 C                     4.71008   1.90697  -0.31092 
 H                     4.35836   2.60105   1.70836 
 H                     4.88424   0.97296  -2.24362 
 H                     2.48682  -1.69054  -1.7233 
 H                     3.38277  -0.83118  -2.88221 
 H                     5.39548   2.71214  -0.56465 
 S                    -2.30593   0.35212  -0.24015 
 

 GradGradGradGradGradGradGradGradGradGradGradGradGradGradGradGradGradGrad
 Berny optimization.
 Initialization pass.
                           ----------------------------
                           !    Initial Parameters    !
                           ! (Angstroms and Degrees)  !
 --------------------------                            --------------------------
 ! Name  Definition              Value          Derivative Info.                !
 --------------------------------------------------------------------------------
 ! R1    R(1,2)                  2.3341         estimate D2E/DX2                !
 ! R2    R(1,30)                 2.3135         estimate D2E/DX2                !
 ! R3    R(2,17)                 1.8059         estimate D2E/DX2                !
 ! R4    R(3,4)                  1.5351         estimate D2E/DX2                !
 ! R5    R(3,7)                  1.0972         estimate D2E/DX2                !
 ! R6    R(3,8)                  1.0969         estimate D2E/DX2                !
 ! R7    R(3,30)                 1.857          estimate D2E/DX2                !
 ! R8    R(4,9)                  1.0954         estimate D2E/DX2                !
 ! R9    R(4,10)                 1.0954         estimate D2E/DX2                !
 ! R10   R(4,11)                 1.0949         estimate D2E/DX2                !
 ! R11   R(5,6)                  1.5345         estimate D2E/DX2                !
 ! R12   R(5,12)                 1.0973         estimate D2E/DX2                !
 ! R13   R(5,13)                 1.0961         estimate D2E/DX2                !
 ! R14   R(5,30)                 1.8569         estimate D2E/DX2                !
 ! R15   R(6,14)                 1.0954         estimate D2E/DX2                !
 ! R16   R(6,15)                 1.0955         estimate D2E/DX2                !
 ! R17   R(6,16)                 1.095          estimate D2E/DX2                !
 ! R18   R(17,18)                1.4002         estimate D2E/DX2                !
 ! R19   R(17,19)                1.4179         estimate D2E/DX2                !
 ! R20   R(18,20)                1.395          estimate D2E/DX2                !
 ! R21   R(18,21)                1.0863         estimate D2E/DX2                !
 ! R22   R(19,22)                1.4078         estimate D2E/DX2                !
 ! R23   R(19,23)                1.3907         estimate D2E/DX2                !
 ! R24   R(20,24)                1.3974         estimate D2E/DX2                !
 ! R25   R(20,25)                1.0865         estimate D2E/DX2                !
 ! R26   R(22,24)                1.3913         estimate D2E/DX2                !
 ! R27   R(22,26)                1.0886         estimate D2E/DX2                !
 ! R28   R(23,27)                1.0141         estimate D2E/DX2                !
 ! R29   R(23,28)                1.0115         estimate D2E/DX2                !
 ! R30   R(24,29)                1.0874         estimate D2E/DX2                !
 ! A1    A(1,2,17)             101.4188         estimate D2E/DX2                !
 ! A2    A(4,3,7)              110.6547         estimate D2E/DX2                !
 ! A3    A(4,3,8)              110.0297         estimate D2E/DX2                !
 ! A4    A(4,3,30)             113.6646         estimate D2E/DX2                !
 ! A5    A(7,3,8)              107.1769         estimate D2E/DX2                !
 ! A6    A(7,3,30)             108.8276         estimate D2E/DX2                !
 ! A7    A(8,3,30)             106.1996         estimate D2E/DX2                !
 ! A8    A(3,4,9)              110.1703         estimate D2E/DX2                !
 ! A9    A(3,4,10)             111.8543         estimate D2E/DX2                !
 ! A10   A(3,4,11)             111.1198         estimate D2E/DX2                !
 ! A11   A(9,4,10)             107.4999         estimate D2E/DX2                !
 ! A12   A(9,4,11)             108.1033         estimate D2E/DX2                !
 ! A13   A(10,4,11)            107.9403         estimate D2E/DX2                !
 ! A14   A(6,5,12)             110.976          estimate D2E/DX2                !
 ! A15   A(6,5,13)             109.9113         estimate D2E/DX2                !
 ! A16   A(6,5,30)             113.561          estimate D2E/DX2                !
 ! A17   A(12,5,13)            106.988          estimate D2E/DX2                !
 ! A18   A(12,5,30)            108.8002         estimate D2E/DX2                !
 ! A19   A(13,5,30)            106.2988         estimate D2E/DX2                !
 ! A20   A(5,6,14)             110.217          estimate D2E/DX2                !
 ! A21   A(5,6,15)             111.7969         estimate D2E/DX2                !
 ! A22   A(5,6,16)             111.1454         estimate D2E/DX2                !
 ! A23   A(14,6,15)            107.5784         estimate D2E/DX2                !
 ! A24   A(14,6,16)            108.0251         estimate D2E/DX2                !
 ! A25   A(15,6,16)            107.9243         estimate D2E/DX2                !
 ! A26   A(2,17,18)            120.4543         estimate D2E/DX2                !
 ! A27   A(2,17,19)            120.2882         estimate D2E/DX2                !
 ! A28   A(18,17,19)           119.2238         estimate D2E/DX2                !
 ! A29   A(17,18,20)           121.599          estimate D2E/DX2                !
 ! A30   A(17,18,21)           118.1765         estimate D2E/DX2                !
 ! A31   A(20,18,21)           120.2235         estimate D2E/DX2                !
 ! A32   A(17,19,22)           118.6522         estimate D2E/DX2                !
 ! A33   A(17,19,23)           121.0953         estimate D2E/DX2                !
 ! A34   A(22,19,23)           120.2185         estimate D2E/DX2                !
 ! A35   A(18,20,24)           119.0937         estimate D2E/DX2                !
 ! A36   A(18,20,25)           120.2159         estimate D2E/DX2                !
 ! A37   A(24,20,25)           120.6902         estimate D2E/DX2                !
 ! A38   A(19,22,24)           121.1706         estimate D2E/DX2                !
 ! A39   A(19,22,26)           118.7634         estimate D2E/DX2                !
 ! A40   A(24,22,26)           120.0637         estimate D2E/DX2                !
 ! A41   A(19,23,27)           114.1619         estimate D2E/DX2                !
 ! A42   A(19,23,28)           115.6356         estimate D2E/DX2                !
 ! A43   A(27,23,28)           113.9459         estimate D2E/DX2                !
 ! A44   A(20,24,22)           120.253          estimate D2E/DX2                !
 ! A45   A(20,24,29)           120.3221         estimate D2E/DX2                !
 ! A46   A(22,24,29)           119.424          estimate D2E/DX2                !
 ! A47   A(1,30,3)             114.9063         estimate D2E/DX2                !
 ! A48   A(1,30,5)             114.816          estimate D2E/DX2                !
 ! A49   A(3,30,5)             104.186          estimate D2E/DX2                !
 ! A50   L(2,1,30,11,-1)       180.6729         estimate D2E/DX2                !
 ! A51   L(2,1,30,11,-2)       179.9324         estimate D2E/DX2                !
 ! D1    D(17,2,30,3)          136.05           estimate D2E/DX2                !
 ! D2    D(17,2,30,5)         -102.9282         estimate D2E/DX2                !
 ! D3    D(1,2,17,18)           87.3986         estimate D2E/DX2                !
 ! D4    D(1,2,17,19)          -94.7274         estimate D2E/DX2                !
 ! D5    D(7,3,4,9)             59.4618         estimate D2E/DX2                !
 ! D6    D(7,3,4,10)           -60.0423         estimate D2E/DX2                !
 ! D7    D(7,3,4,11)           179.2477         estimate D2E/DX2                !
 ! D8    D(8,3,4,9)            -58.7904         estimate D2E/DX2                !
 ! D9    D(8,3,4,10)          -178.2945         estimate D2E/DX2                !
 ! D10   D(8,3,4,11)            60.9955         estimate D2E/DX2                !
 ! D11   D(30,3,4,9)          -177.7353         estimate D2E/DX2                !
 ! D12   D(30,3,4,10)           62.7606         estimate D2E/DX2                !
 ! D13   D(30,3,4,11)          -57.9493         estimate D2E/DX2                !
 ! D14   D(4,3,30,1)            54.173          estimate D2E/DX2                !
 ! D15   D(4,3,30,5)           -72.3159         estimate D2E/DX2                !
 ! D16   D(7,3,30,1)           177.9742         estimate D2E/DX2                !
 ! D17   D(7,3,30,5)            51.4852         estimate D2E/DX2                !
 ! D18   D(8,3,30,1)           -66.94           estimate D2E/DX2                !
 ! D19   D(8,3,30,5)           166.571          estimate D2E/DX2                !
 ! D20   D(12,5,6,14)           59.2939         estimate D2E/DX2                !
 ! D21   D(12,5,6,15)          -60.3029         estimate D2E/DX2                !
 ! D22   D(12,5,6,16)          179.0291         estimate D2E/DX2                !
 ! D23   D(13,5,6,14)          -58.8489         estimate D2E/DX2                !
 ! D24   D(13,5,6,15)         -178.4457         estimate D2E/DX2                !
 ! D25   D(13,5,6,16)           60.8863         estimate D2E/DX2                !
 ! D26   D(30,5,6,14)         -177.7692         estimate D2E/DX2                !
 ! D27   D(30,5,6,15)           62.634          estimate D2E/DX2                !
 ! D28   D(30,5,6,16)          -58.034          estimate D2E/DX2                !
 ! D29   D(6,5,30,1)            58.3114         estimate D2E/DX2                !
 ! D30   D(6,5,30,3)          -175.1432         estimate D2E/DX2                !
 ! D31   D(12,5,30,1)         -177.5638         estimate D2E/DX2                !
 ! D32   D(12,5,30,3)          -51.0183         estimate D2E/DX2                !
 ! D33   D(13,5,30,1)          -62.6596         estimate D2E/DX2                !
 ! D34   D(13,5,30,3)           63.8859         estimate D2E/DX2                !
 ! D35   D(2,17,18,20)         178.8186         estimate D2E/DX2                !
 ! D36   D(2,17,18,21)          -1.5499         estimate D2E/DX2                !
 ! D37   D(19,17,18,20)          0.9222         estimate D2E/DX2                !
 ! D38   D(19,17,18,21)       -179.4463         estimate D2E/DX2                !
 ! D39   D(2,17,19,22)        -178.8561         estimate D2E/DX2                !
 ! D40   D(2,17,19,23)          -0.9719         estimate D2E/DX2                !
 ! D41   D(18,17,19,22)         -0.9561         estimate D2E/DX2                !
 ! D42   D(18,17,19,23)        176.9281         estimate D2E/DX2                !
 ! D43   D(17,18,20,24)         -0.2571         estimate D2E/DX2                !
 ! D44   D(17,18,20,25)        179.8851         estimate D2E/DX2                !
 ! D45   D(21,18,20,24)       -179.8811         estimate D2E/DX2                !
 ! D46   D(21,18,20,25)          0.261          estimate D2E/DX2                !
 ! D47   D(17,19,22,24)          0.3575         estimate D2E/DX2                !
 ! D48   D(17,19,22,26)        179.8085         estimate D2E/DX2                !
 ! D49   D(23,19,22,24)       -177.5459         estimate D2E/DX2                !
 ! D50   D(23,19,22,26)          1.9051         estimate D2E/DX2                !
 ! D51   D(17,19,23,27)         17.5291         estimate D2E/DX2                !
 ! D52   D(17,19,23,28)        152.6584         estimate D2E/DX2                !
 ! D53   D(22,19,23,27)       -164.6196         estimate D2E/DX2                !
 ! D54   D(22,19,23,28)        -29.4903         estimate D2E/DX2                !
 ! D55   D(18,20,24,22)         -0.3645         estimate D2E/DX2                !
 ! D56   D(18,20,24,29)        179.977          estimate D2E/DX2                !
 ! D57   D(25,20,24,22)        179.4927         estimate D2E/DX2                !
 ! D58   D(25,20,24,29)         -0.1658         estimate D2E/DX2                !
 ! D59   D(19,22,24,20)          0.3091         estimate D2E/DX2                !
 ! D60   D(19,22,24,29)        179.9706         estimate D2E/DX2                !
 ! D61   D(26,22,24,20)       -179.1349         estimate D2E/DX2                !
 ! D62   D(26,22,24,29)          0.5267         estimate D2E/DX2                !
 --------------------------------------------------------------------------------
 Trust Radius=3.00D-01 FncErr=1.00D-07 GrdErr=1.00D-06
 Number of steps in this run=    153 maximum allowed number of steps=    180.
 GradGradGradGradGradGradGradGradGradGradGradGradGradGradGradGradGradGrad

                          Input orientation:                          
 ---------------------------------------------------------------------
 Center     Atomic      Atomic             Coordinates (Angstroms)
 Number     Number       Type             X           Y           Z
 ---------------------------------------------------------------------
      1         79           0       -0.254613   -0.600524    0.246428
      2         16           0        1.825297   -1.536577    0.742022
      3          6           0       -3.484423   -0.753591   -1.155000
      4          6           0       -3.725783   -2.102938   -0.463935
      5          6           0       -3.271851    0.921041    1.240250
      6          6           0       -2.528962    1.954832    2.097084
      7          1           0       -4.431224   -0.218569   -1.300759
      8          1           0       -3.046263   -0.913042   -2.147872
      9          1           0       -4.395191   -2.723239   -1.069843
     10          1           0       -4.191437   -1.979688    0.519856
     11          1           0       -2.786933   -2.649391   -0.326621
     12          1           0       -4.239125    1.313484    0.901895
     13          1           0       -3.480403    0.024117    1.834712
     14          1           0       -3.129426    2.221877    2.973433
     15          1           0       -2.328689    2.876566    1.539879
     16          1           0       -1.570808    1.559735    2.450476
     17          6           0        2.938779   -0.181008    0.313137
     18          6           0        3.254485    0.803828    1.257119
     19          6           0        3.538732   -0.127216   -0.970506
     20          6           0        4.130611    1.847744    0.959254
     21          1           0        2.792140    0.741031    2.238145
     22          6           0        4.420189    0.931637   -1.259798
     23          7           0        3.302364   -1.119365   -1.915968
     24          6           0        4.710077    1.906970   -0.310922
     25          1           0        4.358363    2.601048    1.708363
     26          1           0        4.884237    0.972957   -2.243624
     27          1           0        2.486824   -1.690535   -1.723299
     28          1           0        3.382772   -0.831180   -2.882206
     29          1           0        5.395477    2.712135   -0.564653
     30         16           0       -2.305934    0.352124   -0.240146
 ---------------------------------------------------------------------
                    Distance matrix (angstroms):
                    1          2          3          4          5
     1  Au   0.000000
     2  S    2.334060   0.000000
     3  C    3.524075   5.692529   0.000000
     4  C    3.848491   5.708729   1.535110   0.000000
     5  C    3.522296   5.680584   2.930325   3.500678   0.000000
     6  C    3.889400   5.743318   4.338722   4.945371   1.534527
     7  H    4.470320   6.712239   1.097236   2.179167   3.016552
     8  H    3.691023   5.698454   1.096906   2.171001   3.859290
     9  H    4.835584   6.586766   2.171696   1.095447   4.458610
    10  H    4.180364   6.037118   2.192789   1.095385   3.127113
    11  H    3.307399   4.863437   2.183291   1.094945   3.929149
    12  H    4.468713   6.702658   3.012174   3.714963   1.097322
    13  H    3.649458   5.637392   3.089211   3.141393   1.096062
    14  H    4.864880   6.607152   5.101313   5.556543   2.171723
    15  H    4.250290   6.112938   4.666491   5.546404   2.191668
    16  H    3.355133   4.903008   4.691786   5.152949   2.183146
    17  C    3.221521   1.805921   6.613683   6.979545   6.375420
    18  C    3.912476   2.790233   7.325077   7.754705   6.527410
    19  C    4.011785   2.802661   7.053445   7.545414   7.236734
    20  C    5.072704   4.100645   8.320202   8.908214   7.465533
    21  H    3.879357   2.891482   7.289895   7.607412   6.148185
    22  C    5.144901   4.102783   8.082937   8.729198   8.088129
    23  N    4.194906   3.069316   6.839104   7.243664   7.572666
    24  C    5.589840   4.613964   8.656840   9.341655   8.190810
    25  H    5.802315   4.946734   8.997874   9.602072   7.826987
    26  H    5.923173   4.956708   8.613974   9.314551   8.869151
    27  H    3.547312   2.557172   6.070965   6.352366   6.983215
    28  H    4.803345   4.007286   7.081499   7.615573   8.021778
    29  H    6.599627   5.701328   9.550518  10.314672   9.032622
    30  S    2.313484   4.647463   1.856987   2.844887   1.856942
                    6          7          8          9         10
     6  C    0.000000
     7  H    4.459553   0.000000
     8  H    5.148976   1.765789   0.000000
     9  H    5.949503   2.515550   2.501713   0.000000
    10  H    4.553232   2.544342   3.092884   1.766784   0.000000
    11  H    5.209584   3.092173   2.529647   1.773225   1.771343
    12  H    2.182765   2.689939   3.959977   4.495246   3.315601
    13  H    2.168349   3.285443   4.114331   4.101371   2.499930
    14  H    1.095380   5.091088   6.005198   6.511867   4.980066
    15  H    1.095527   4.697844   5.336249   6.514514   5.300328
    16  H    1.095010   5.041439   5.425532   6.222030   4.808587
    17  C    6.135183   7.544734   6.512539   7.884332   7.356491
    18  C    5.956392   8.164445   7.364851   8.739136   7.983312
    19  C    7.110692   7.977319   6.735419   8.348433   8.087543
    20  C    6.756925   9.092982   8.293593   9.884352   9.170539
    21  H    5.459610   8.100720   7.487326   8.637226   7.689290
    22  C    7.785004   8.925926   7.742055   9.544901   9.262995
    23  N    7.717489   7.810141   6.356211   7.908267   7.926566
    24  C    7.629185   9.437218   8.455038  10.243081   9.748500
    25  H    6.928488   9.708857   9.058028  10.615610   9.772143
    26  H    8.646464   9.438567   8.152238  10.057207   9.935934
    27  H    7.283003   7.085521   5.603553   6.989679   7.050853
    28  H    8.216069   7.995924   6.471355   8.207390   8.382228
    29  H    8.393753  10.280804   9.322632  11.209625  10.728387
    30  S    2.842720   2.442836   2.405858   3.809363   3.093553
                   11         12         13         14         15
    11  H    0.000000
    12  H    4.395736   0.000000
    13  H    3.507122   1.763030   0.000000
    14  H    5.893803   2.519500   2.500004   0.000000
    15  H    5.850642   2.549513   3.090281   1.767731   0.000000
    16  H    5.187289   3.094941   2.526626   1.772345   1.771331
    17  C    6.267853   7.355437   6.600240   7.047989   6.212880
    18  C    7.136644   7.519317   6.804431   6.760985   5.962217
    19  C    6.840321   8.128749   7.560450   8.095506   7.053465
    20  C    8.350456   8.386966   7.875251   7.543542   6.566442
    21  H    7.014203   7.179969   6.326256   6.148048   5.592046
    22  C    8.101678   8.933221   8.533401   8.751094   7.560972
    23  N    6.476615   8.410301   7.834608   8.742886   7.721341
    24  C    8.773017   9.050490   8.673687   8.505525   7.342330
    25  H    9.097446   8.730694   8.252441   7.603365   6.694846
    26  H    8.697307   9.656396   9.354161   9.643458   8.364504
    27  H    5.539190   7.820113   7.155926   8.301116   7.395668
    28  H    6.921139   8.775666   8.371620   9.274610   8.119298
    29  H    9.785420   9.845433   9.579334   9.242964   8.007424
    30  S    3.041041   2.442478   2.406658   3.808045   3.088983
                   16         17         18         19         20
    16  H    0.000000
    17  C    5.285336   0.000000
    18  C    5.027818   1.400241   0.000000
    19  C    6.376231   1.417948   2.431039   0.000000
    20  C    5.900243   2.440034   1.395020   2.823962   0.000000
    21  H    4.444173   2.139466   1.086333   3.406860   2.156822
    22  C    7.074792   2.430366   2.776702   1.407773   2.418119
    23  N    7.070447   2.445734   3.710720   1.390729   4.213862
    24  C    6.869891   2.808309   2.407161   2.438240   1.397367
    25  H    6.065487   3.420776   2.156888   3.910442   1.086509
    26  H    8.002905   3.413718   3.865216   2.154436   3.404649
    27  H    6.667011   2.574880   3.961571   2.029082   4.734717
    28  H    7.661066   3.290907   4.452384   2.043156   4.742648
    29  H    7.677770   3.895659   3.397696   3.416743   2.160868
    30  S    3.039438   5.300695   5.776166   5.909595   6.715992
                   21         22         23         24         25
    21  H    0.000000
    22  C    3.862963   0.000000
    23  N    4.580181   2.426252   0.000000
    24  C    3.396416   1.391285   3.703584   0.000000
    25  H    2.488652   3.405985   5.300225   2.164015   0.000000
    26  H    4.951456   1.088559   2.643386   2.153613   4.306440
    27  H    4.658194   3.290672   1.014131   4.458666   5.804881
    28  H    5.388756   2.610740   1.011500   3.983805   5.814232
    29  H    4.303288   2.145830   4.570292   1.087402   2.500909
    30  S    5.681860   6.827610   6.035451   7.186582   7.298438
                   26         27         28         29         30
    26  H    0.000000
    27  H    3.621121   0.000000
    28  H    2.432508   1.698317   0.000000
    29  H    2.470840   5.402428   4.687976   0.000000
    30  S    7.489854   5.416893   6.382951   8.061432   0.000000
 Stoichiometry    C10H16AuNS2
 Framework group  C1[X(C10H16AuNS2)]
 Deg. of freedom    84
 Full point group                 C1      NOp   1
 Largest Abelian subgroup         C1      NOp   1
 Largest concise Abelian subgroup C1      NOp   1
                         Standard orientation:                         
 ---------------------------------------------------------------------
 Center     Atomic      Atomic             Coordinates (Angstroms)
 Number     Number       Type             X           Y           Z
 ---------------------------------------------------------------------
      1         79           0        0.535042   -0.238082   -0.255465
      2         16           0       -1.385845   -0.846473   -1.433552
      3          6           0        3.659870   -0.972519    1.198891
      4          6           0        4.100186   -1.678119   -0.091386
      5          6           0        3.417590    1.747776    0.136771
      6          6           0        2.620115    3.040565   -0.081179
      7          1           0        4.527138   -0.560805    1.730177
      8          1           0        3.177352   -1.690183    1.873678
      9          1           0        4.794214   -2.492988    0.141678
     10          1           0        4.613499   -0.993809   -0.775562
     11          1           0        3.241544   -2.103561   -0.621139
     12          1           0        4.308599    1.934429    0.749452
     13          1           0        3.767017    1.357905   -0.826169
     14          1           0        3.243349    3.790103   -0.580809
     15          1           0        2.278545    3.472390    0.865941
     16          1           0        1.739458    2.860752   -0.706604
     17          6           0       -2.673698   -0.037181   -0.459984
     18          6           0       -3.036320    1.288959   -0.725557
     19          6           0       -3.360521   -0.753061    0.553113
     20          6           0       -4.044391    1.929461   -0.004701
     21          1           0       -2.505131    1.818447   -1.511431
     22          6           0       -4.375014   -0.095725    1.274598
     23          7           0       -3.075794   -2.090577    0.806311
     24          6           0       -4.710630    1.226836    1.002810
     25          1           0       -4.306338    2.959913   -0.228430
     26          1           0       -4.905616   -0.644564    2.050613
     27          1           0       -2.189051   -2.405071    0.427835
     28          1           0       -3.253296   -2.404498    1.751339
     29          1           0       -5.499319    1.706734    1.577362
     30         16           0        2.426294    0.387435    0.921014
 ---------------------------------------------------------------------
 Rotational constants (GHZ):      0.7621560      0.2038755      0.1840623
 General basis read from cards:  (5D, 7F)
 ======================================================================================================
                                       Pseudopotential Parameters
 ======================================================================================================
  Center     Atomic      Valence      Angular      Power
  Number     Number     Electrons     Momentum     of R      Exponent        Coefficient   SO-Coeffient
 ======================================================================================================
    1         79           19
                                      G and up 
                                                     1      622.6287956      -60.00000000    0.00000000
                                                     2      136.2843607     -555.52923120    0.00000000
                                                     2       33.1549781     -168.00197850    0.00000000
                                                     2        9.9894895      -63.03998750    0.00000000
                                                     2        3.0481312       -4.25166810    0.00000000
                                      S - G
                                                     0      194.7374304        3.00000000    0.00000000
                                                     1      351.5327447       38.60208800    0.00000000
                                                     2      122.3270402      864.83707270    0.00000000
                                                     2       32.0914617      374.99355200    0.00000000
                                                     2        5.2451812      289.79101000    0.00000000
                                                     2        4.4916223     -152.45327730    0.00000000
                                      P - G
                                                     0      420.6158801        2.00000000    0.00000000
                                                     1      109.4417815       73.88856250    0.00000000
                                                     2       34.1714280      326.67298720    0.00000000
                                                     2        5.9879750      126.58145910    0.00000000
                                      D - G
                                                     0      219.2666158        3.00000000    0.00000000
                                                     1      122.7297786       55.67931490    0.00000000
                                                     2       63.1063369      449.19873350    0.00000000
                                                     2       18.3684520      215.02690910    0.00000000
                                                     2        4.4972844       64.08409950    0.00000000
                                      F - G
                                                     0      108.5506037        4.00000000    0.00000000
                                                     1       56.4795527       51.80653350    0.00000000
                                                     2       29.2069159      231.21831130    0.00000000
                                                     2        9.5440543      119.00473860    0.00000000
                                                     2        2.8965118       15.34241880    0.00000000
    2         16
                                   No pseudopotential on this center.
    3          6
                                   No pseudopotential on this center.
    4          6
                                   No pseudopotential on this center.
    5          6
                                   No pseudopotential on this center.
    6          6
                                   No pseudopotential on this center.
    7          1
                                   No pseudopotential on this center.
    8          1
                                   No pseudopotential on this center.
    9          1
                                   No pseudopotential on this center.
   10          1
                                   No pseudopotential on this center.
   11          1
                                   No pseudopotential on this center.
   12          1
                                   No pseudopotential on this center.
   13          1
                                   No pseudopotential on this center.
   14          1
                                   No pseudopotential on this center.
   15          1
                                   No pseudopotential on this center.
   16          1
                                   No pseudopotential on this center.
   17          6
                                   No pseudopotential on this center.
   18          6
                                   No pseudopotential on this center.
   19          6
                                   No pseudopotential on this center.
   20          6
                                   No pseudopotential on this center.
   21          1
                                   No pseudopotential on this center.
   22          6
                                   No pseudopotential on this center.
   23          7
                                   No pseudopotential on this center.
   24          6
                                   No pseudopotential on this center.
   25          1
                                   No pseudopotential on this center.
   26          1
                                   No pseudopotential on this center.
   27          1
                                   No pseudopotential on this center.
   28          1
                                   No pseudopotential on this center.
   29          1
                                   No pseudopotential on this center.
   30         16
                                   No pseudopotential on this center.
 ======================================================================================================
 There are   283 symmetry adapted cartesian basis functions of A   symmetry.
 There are   264 symmetry adapted basis functions of A   symmetry.
   264 basis functions,   524 primitive gaussians,   283 cartesian basis functions
    67 alpha electrons       67 beta electrons
       nuclear repulsion energy      1229.0447222445 Hartrees.
 NAtoms=   30 NActive=   30 NUniq=   30 SFac= 1.00D+00 NAtFMM=   60 NAOKFM=F Big=F
 Integral buffers will be    131072 words long.
 Raffenetti 2 integral format.
 Two-electron integral symmetry is turned on.
 One-electron integrals computed using PRISM.
   1 Symmetry operations used in ECPInt.
 ECPInt:  NShTT=    5050 NPrTT=   27573 LenC2=    4379 LenP2D=   14650.
 LDataN:  DoStor=T MaxTD1= 7 Len=  274
 NBasis=   264 RedAO= T EigKep=  4.76D-04  NBF=   264
 NBsUse=   264 1.00D-06 EigRej= -1.00D+00 NBFU=   264
 Defaulting to unpruned grid for atomic number  79.
 ExpMin= 2.79D-02 ExpMax= 2.19D+04 ExpMxC= 3.30D+03 IAcc=3 IRadAn=         5 AccDes= 0.00D+00
 Harris functional with IExCor=  402 and IRadAn=       5 diagonalized for initial guess.
 HarFok:  IExCor=  402 AccDes= 0.00D+00 IRadAn=         5 IDoV= 1 UseB2=F ITyADJ=14
 ICtDFT=  3500011 ScaDFX=  1.000000  1.000000  1.000000  1.000000
 Defaulting to unpruned grid for atomic number  79.
 Defaulting to unpruned grid for atomic number  79.
 Defaulting to unpruned grid for atomic number  79.
 Defaulting to unpruned grid for atomic number  79.
 Defaulting to unpruned grid for atomic number  79.
 Defaulting to unpruned grid for atomic number  79.
 Defaulting to unpruned grid for atomic number  79.
 Defaulting to unpruned grid for atomic number  79.
 FoFCou: FMM=F IPFlag=           0 FMFlag=      100000 FMFlg1=           0
         NFxFlg=           0 DoJE=T BraDBF=F KetDBF=T FulRan=T
         wScrn=  0.000000 ICntrl=     500 IOpCl=  0 I1Cent=   200000004 NGrid=           0
         NMat0=    1 NMatS0=      1 NMatT0=    0 NMatD0=    1 NMtDS0=    0 NMtDT0=    0
 Petite list used in FoFCou.
 Keep R1 ints in memory in canonical form, NReq=623533903.
 Requested convergence on RMS density matrix=1.00D-08 within 128 cycles.
 Requested convergence on MAX density matrix=1.00D-06.
 Requested convergence on             energy=1.00D-06.
 No special actions if energy rises.
 Defaulting to unpruned grid for atomic number  79.
 Defaulting to unpruned grid for atomic number  79.
 Defaulting to unpruned grid for atomic number  79.
 Defaulting to unpruned grid for atomic number  79.
 Defaulting to unpruned grid for atomic number  79.
 Defaulting to unpruned grid for atomic number  79.
 Defaulting to unpruned grid for atomic number  79.
 Defaulting to unpruned grid for atomic number  79.
 SCF Done:  E(RB3LYP) =  -1377.35172151     A.U. after   15 cycles
            NFock= 15  Conv=0.70D-08     -V/T= 2.0758

 **********************************************************************

            Population analysis using the SCF density.

 **********************************************************************

 Orbital symmetries:
       Occupied  (A) (A) (A) (A) (A) (A) (A) (A) (A) (A) (A) (A)
                 (A) (A) (A) (A) (A) (A) (A) (A) (A) (A) (A) (A)
                 (A) (A) (A) (A) (A) (A) (A) (A) (A) (A) (A) (A)
                 (A) (A) (A) (A) (A) (A) (A) (A) (A) (A) (A) (A)
                 (A) (A) (A) (A) (A) (A) (A) (A) (A) (A) (A) (A)
                 (A) (A) (A) (A) (A) (A) (A)
       Virtual   (A) (A) (A) (A) (A) (A) (A) (A) (A) (A) (A) (A)
                 (A) (A) (A) (A) (A) (A) (A) (A) (A) (A) (A) (A)
                 (A) (A) (A) (A) (A) (A) (A) (A) (A) (A) (A) (A)
                 (A) (A) (A) (A) (A) (A) (A) (A) (A) (A) (A) (A)
                 (A) (A) (A) (A) (A) (A) (A) (A) (A) (A) (A) (A)
                 (A) (A) (A) (A) (A) (A) (A) (A) (A) (A) (A) (A)
                 (A) (A) (A) (A) (A) (A) (A) (A) (A) (A) (A) (A)
                 (A) (A) (A) (A) (A) (A) (A) (A) (A) (A) (A) (A)
                 (A) (A) (A) (A) (A) (A) (A) (A) (A) (A) (A) (A)
                 (A) (A) (A) (A) (A) (A) (A) (A) (A) (A) (A) (A)
                 (A) (A) (A) (A) (A) (A) (A) (A) (A) (A) (A) (A)
                 (A) (A) (A) (A) (A) (A) (A) (A) (A) (A) (A) (A)
                 (A) (A) (A) (A) (A) (A) (A) (A) (A) (A) (A) (A)
                 (A) (A) (A) (A) (A) (A) (A) (A) (A) (A) (A) (A)
                 (A) (A) (A) (A) (A) (A) (A) (A) (A) (A) (A) (A)
                 (A) (A) (A) (A) (A) (A) (A) (A) (A) (A) (A) (A)
                 (A) (A) (A) (A) (A)
 The electronic state is 1-A.
 Alpha  occ. eigenvalues --  -88.91781 -88.82113 -14.30928 -10.24811 -10.24558
 Alpha  occ. eigenvalues --  -10.20421 -10.20163 -10.20066 -10.18169 -10.16218
 Alpha  occ. eigenvalues --  -10.15999 -10.15708 -10.15273  -7.99229  -7.89556
 Alpha  occ. eigenvalues --   -5.95567  -5.95344  -5.94724  -5.85926  -5.85583
 Alpha  occ. eigenvalues --   -5.85090  -4.16362  -2.31093  -2.28943  -2.28820
 Alpha  occ. eigenvalues --   -0.89684  -0.85090  -0.81362  -0.79393  -0.74190
 Alpha  occ. eigenvalues --   -0.72890  -0.70429  -0.65464  -0.65427  -0.62025
 Alpha  occ. eigenvalues --   -0.58300  -0.56008  -0.49596  -0.49371  -0.48672
 Alpha  occ. eigenvalues --   -0.48578  -0.48107  -0.45143  -0.44301  -0.42787
 Alpha  occ. eigenvalues --   -0.41405  -0.40632  -0.40564  -0.40024  -0.39133
 Alpha  occ. eigenvalues --   -0.38694  -0.37537  -0.37255  -0.36640  -0.34406
 Alpha  occ. eigenvalues --   -0.33741  -0.32670  -0.31816  -0.29936  -0.29916
 Alpha  occ. eigenvalues --   -0.28610  -0.28424  -0.27487  -0.26161  -0.21061
 Alpha  occ. eigenvalues --   -0.20288  -0.17760
 Alpha virt. eigenvalues --   -0.02595  -0.01698  -0.00746   0.02638   0.03323
 Alpha virt. eigenvalues --    0.03757   0.03981   0.04586   0.07746   0.09091
 Alpha virt. eigenvalues --    0.09666   0.10093   0.11326   0.11883   0.12440
 Alpha virt. eigenvalues --    0.13603   0.14462   0.14993   0.15697   0.15828
 Alpha virt. eigenvalues --    0.16060   0.17150   0.18192   0.18925   0.19491
 Alpha virt. eigenvalues --    0.19896   0.20283   0.20656   0.20776   0.22253
 Alpha virt. eigenvalues --    0.26002   0.27872   0.28800   0.30948   0.32607
 Alpha virt. eigenvalues --    0.33459   0.34813   0.35598   0.37104   0.37793
 Alpha virt. eigenvalues --    0.38096   0.38932   0.40501   0.41999   0.42542
 Alpha virt. eigenvalues --    0.44583   0.45491   0.47267   0.50761   0.53190
 Alpha virt. eigenvalues --    0.54382   0.55099   0.55972   0.56610   0.56779
 Alpha virt. eigenvalues --    0.57977   0.59120   0.60155   0.60747   0.60793
 Alpha virt. eigenvalues --    0.62322   0.62815   0.63319   0.64285   0.64487
 Alpha virt. eigenvalues --    0.64998   0.66096   0.67099   0.67756   0.69533
 Alpha virt. eigenvalues --    0.71922   0.73848   0.74004   0.75974   0.79378
 Alpha virt. eigenvalues --    0.80246   0.80387   0.82449   0.83577   0.84530
 Alpha virt. eigenvalues --    0.84799   0.85405   0.85447   0.86840   0.87568
 Alpha virt. eigenvalues --    0.88605   0.88899   0.89218   0.90140   0.90751
 Alpha virt. eigenvalues --    0.91951   0.92563   0.93085   0.94156   0.94867
 Alpha virt. eigenvalues --    0.95443   0.96194   0.97054   0.97482   0.97899
 Alpha virt. eigenvalues --    0.98349   0.99357   1.00057   1.00185   1.02471
 Alpha virt. eigenvalues --    1.05878   1.07536   1.08425   1.11869   1.13785
 Alpha virt. eigenvalues --    1.15107   1.17646   1.18815   1.21985   1.28116
 Alpha virt. eigenvalues --    1.29422   1.36117   1.38994   1.42847   1.45855
 Alpha virt. eigenvalues --    1.47266   1.48041   1.48209   1.51059   1.51169
 Alpha virt. eigenvalues --    1.51851   1.52555   1.56387   1.58063   1.58793
 Alpha virt. eigenvalues --    1.60181   1.78547   1.79396   1.81426   1.82634
 Alpha virt. eigenvalues --    1.86285   1.87221   1.88877   1.89149   1.90719
 Alpha virt. eigenvalues --    1.92284   1.93464   1.94313   1.96018   1.96188
 Alpha virt. eigenvalues --    1.96388   1.96881   1.99643   2.00074   2.00355
 Alpha virt. eigenvalues --    2.00769   2.01015   2.01222   2.01796   2.02461
 Alpha virt. eigenvalues --    2.02751   2.07608   2.08576   2.09332   2.10904
 Alpha virt. eigenvalues --    2.13481   2.14577   2.16192   2.16858   2.20369
 Alpha virt. eigenvalues --    2.21550   2.23163   2.24049   2.25253   2.25919
 Alpha virt. eigenvalues --    2.27425   2.28645   2.29430   2.30016   2.30313
 Alpha virt. eigenvalues --    2.30517   2.33573   2.45107   2.48701   2.52644
 Alpha virt. eigenvalues --    2.55450   2.57888   2.58851   2.61878   2.63088
 Alpha virt. eigenvalues --    2.68147   2.74381   2.75352   2.77679   2.84836
 Alpha virt. eigenvalues --    2.91952   3.11020   3.41020  15.58792  15.59424
 Alpha virt. eigenvalues --   15.66701  43.07761
          Condensed to atoms (all electrons):
               1          2          3          4          5          6
     1  Au  18.640731   0.295361  -0.025482   0.004179  -0.026773   0.002797
     2  S    0.295361  15.752298   0.000035  -0.000033   0.000015  -0.000051
     3  C   -0.025482   0.000035   5.222923   0.352004  -0.019157   0.001548
     4  C    0.004179  -0.000033   0.352004   5.107151  -0.002486   0.000028
     5  C   -0.026773   0.000015  -0.019157  -0.002486   5.218543   0.360031
     6  C    0.002797  -0.000051   0.001548   0.000028   0.360031   5.069600
     7  H    0.001683  -0.000001   0.363823  -0.038073  -0.003254   0.000019
     8  H    0.001039  -0.000013   0.373627  -0.034826   0.001946  -0.000031
     9  H   -0.001095   0.000000  -0.026515   0.364722   0.000022   0.000000
    10  H    0.001644  -0.000002  -0.036002   0.382348   0.001816  -0.000036
    11  H    0.010145  -0.000072  -0.031765   0.384414  -0.000147  -0.000004
    12  H    0.000771  -0.000001  -0.001705  -0.000472   0.363916  -0.029339
    13  H    0.002206  -0.000003  -0.002158   0.002816   0.369739  -0.032427
    14  H   -0.000595   0.000001  -0.000052   0.000001  -0.025669   0.371252
    15  H    0.001571  -0.000002  -0.000006   0.000001  -0.036004   0.381356
    16  H    0.008531  -0.000065   0.000036  -0.000007  -0.032116   0.383425
    17  C   -0.031758   0.266304   0.000000   0.000000   0.000000   0.000000
    18  C   -0.002617  -0.067054   0.000000   0.000000   0.000000   0.000001
    19  C   -0.004690  -0.072521   0.000000   0.000000   0.000000   0.000000
    20  C    0.000143   0.005078   0.000000   0.000000   0.000000   0.000000
    21  H    0.004506  -0.001918   0.000000   0.000000   0.000000  -0.000001
    22  C   -0.001168   0.005563   0.000000   0.000000   0.000000   0.000000
    23  N    0.007418  -0.021484   0.000000   0.000000   0.000000   0.000000
    24  C    0.000431   0.000368   0.000000   0.000000   0.000000   0.000000
    25  H    0.000258  -0.000237   0.000000   0.000000   0.000000   0.000000
    26  H    0.000267  -0.000236   0.000000   0.000000   0.000000   0.000000
    27  H    0.002727   0.026243   0.000000   0.000000   0.000000   0.000000
    28  H    0.001296   0.000855   0.000000   0.000000   0.000000   0.000000
    29  H   -0.000088   0.000017   0.000000   0.000000   0.000000   0.000000
    30  S    0.175517  -0.004195   0.245030  -0.061091   0.235577  -0.039824
               7          8          9         10         11         12
     1  Au   0.001683   0.001039  -0.001095   0.001644   0.010145   0.000771
     2  S   -0.000001  -0.000013   0.000000  -0.000002  -0.000072  -0.000001
     3  C    0.363823   0.373627  -0.026515  -0.036002  -0.031765  -0.001705
     4  C   -0.038073  -0.034826   0.364722   0.382348   0.384414  -0.000472
     5  C   -0.003254   0.001946   0.000022   0.001816  -0.000147   0.363916
     6  C    0.000019  -0.000031   0.000000  -0.000036  -0.000004  -0.029339
     7  H    0.544067  -0.028021  -0.002203  -0.003467   0.003799   0.004044
     8  H   -0.028021   0.510910  -0.002951   0.004077  -0.003951   0.000038
     9  H   -0.002203  -0.002951   0.552479  -0.029595  -0.026097   0.000006
    10  H   -0.003467   0.004077  -0.029595   0.548144  -0.029123   0.000136
    11  H    0.003799  -0.003951  -0.026097  -0.029123   0.490246   0.000011
    12  H    0.004044   0.000038   0.000006   0.000136   0.000011   0.553017
    13  H   -0.000532  -0.000071  -0.000134   0.002322   0.000009  -0.037957
    14  H   -0.000002   0.000001   0.000000   0.000003   0.000000  -0.003080
    15  H   -0.000003  -0.000001   0.000000   0.000000   0.000000  -0.003959
    16  H    0.000001   0.000001   0.000000   0.000001  -0.000001   0.003888
    17  C    0.000000   0.000000   0.000000   0.000000   0.000000   0.000000
    18  C    0.000000   0.000000   0.000000   0.000000   0.000000   0.000000
    19  C    0.000000   0.000000   0.000000   0.000000   0.000000   0.000000
    20  C    0.000000   0.000000   0.000000   0.000000   0.000000   0.000000
    21  H    0.000000   0.000000   0.000000   0.000000   0.000000   0.000000
    22  C    0.000000   0.000000   0.000000   0.000000   0.000000   0.000000
    23  N    0.000000   0.000000   0.000000   0.000000   0.000000   0.000000
    24  C    0.000000   0.000000   0.000000   0.000000   0.000000   0.000000
    25  H    0.000000   0.000000   0.000000   0.000000   0.000000   0.000000
    26  H    0.000000   0.000000   0.000000   0.000000   0.000000   0.000000
    27  H    0.000000   0.000000   0.000000   0.000000   0.000000   0.000000
    28  H    0.000000   0.000000   0.000000   0.000000   0.000000   0.000000
    29  H    0.000000   0.000000   0.000000   0.000000   0.000000   0.000000
    30  S   -0.029866  -0.031931   0.005969  -0.005250  -0.006843  -0.034080
              13         14         15         16         17         18
     1  Au   0.002206  -0.000595   0.001571   0.008531  -0.031758  -0.002617
     2  S   -0.000003   0.000001  -0.000002  -0.000065   0.266304  -0.067054
     3  C   -0.002158  -0.000052  -0.000006   0.000036   0.000000   0.000000
     4  C    0.002816   0.000001   0.000001  -0.000007   0.000000   0.000000
     5  C    0.369739  -0.025669  -0.036004  -0.032116   0.000000   0.000000
     6  C   -0.032427   0.371252   0.381356   0.383425   0.000000   0.000001
     7  H   -0.000532  -0.000002  -0.000003   0.000001   0.000000   0.000000
     8  H   -0.000071   0.000001  -0.000001   0.000001   0.000000   0.000000
     9  H   -0.000134   0.000000   0.000000   0.000000   0.000000   0.000000
    10  H    0.002322   0.000003   0.000000   0.000001   0.000000   0.000000
    11  H    0.000009   0.000000   0.000000  -0.000001   0.000000   0.000000
    12  H   -0.037957  -0.003080  -0.003959   0.003888   0.000000   0.000000
    13  H    0.552503  -0.003538   0.004355  -0.004320   0.000000   0.000000
    14  H   -0.003538   0.541874  -0.029145  -0.025400   0.000000   0.000000
    15  H    0.004355  -0.029145   0.530797  -0.028301   0.000000   0.000000
    16  H   -0.004320  -0.025400  -0.028301   0.492791   0.000000  -0.000005
    17  C    0.000000   0.000000   0.000000   0.000000   5.115704   0.522477
    18  C    0.000000   0.000000   0.000000  -0.000005   0.522477   4.920480
    19  C    0.000000   0.000000   0.000000   0.000000   0.487386  -0.016105
    20  C    0.000000   0.000000   0.000000   0.000000  -0.039378   0.530103
    21  H    0.000000   0.000000   0.000000  -0.000002  -0.039888   0.356584
    22  C    0.000000   0.000000   0.000000   0.000000  -0.050929  -0.044384
    23  N    0.000000   0.000000   0.000000   0.000000  -0.074496   0.004786
    24  C    0.000000   0.000000   0.000000   0.000000  -0.038819  -0.019687
    25  H    0.000000   0.000000   0.000000   0.000000   0.004799  -0.043124
    26  H    0.000000   0.000000   0.000000   0.000000   0.005839   0.000354
    27  H    0.000000   0.000000   0.000000   0.000000  -0.009958   0.000331
    28  H    0.000000   0.000000   0.000000   0.000000   0.006427  -0.000093
    29  H    0.000000   0.000000   0.000000   0.000000   0.000755   0.004758
    30  S   -0.051380   0.003988   0.000493  -0.006748   0.000385   0.000018
              19         20         21         22         23         24
     1  Au  -0.004690   0.000143   0.004506  -0.001168   0.007418   0.000431
     2  S   -0.072521   0.005078  -0.001918   0.005563  -0.021484   0.000368
     3  C    0.000000   0.000000   0.000000   0.000000   0.000000   0.000000
     4  C    0.000000   0.000000   0.000000   0.000000   0.000000   0.000000
     5  C    0.000000   0.000000   0.000000   0.000000   0.000000   0.000000
     6  C    0.000000   0.000000  -0.000001   0.000000   0.000000   0.000000
     7  H    0.000000   0.000000   0.000000   0.000000   0.000000   0.000000
     8  H    0.000000   0.000000   0.000000   0.000000   0.000000   0.000000
     9  H    0.000000   0.000000   0.000000   0.000000   0.000000   0.000000
    10  H    0.000000   0.000000   0.000000   0.000000   0.000000   0.000000
    11  H    0.000000   0.000000   0.000000   0.000000   0.000000   0.000000
    12  H    0.000000   0.000000   0.000000   0.000000   0.000000   0.000000
    13  H    0.000000   0.000000   0.000000   0.000000   0.000000   0.000000
    14  H    0.000000   0.000000   0.000000   0.000000   0.000000   0.000000
    15  H    0.000000   0.000000   0.000000   0.000000   0.000000   0.000000
    16  H    0.000000   0.000000  -0.000002   0.000000   0.000000   0.000000
    17  C    0.487386  -0.039378  -0.039888  -0.050929  -0.074496  -0.038819
    18  C   -0.016105   0.530103   0.356584  -0.044384   0.004786  -0.019687
    19  C    4.584187  -0.035703   0.004074   0.523520   0.331871  -0.008878
    20  C   -0.035703   4.884085  -0.044217  -0.040003   0.000582   0.546616
    21  H    0.004074  -0.044217   0.583871   0.000866  -0.000120   0.004519
    22  C    0.523520  -0.040003   0.000866   4.981748  -0.068946   0.552361
    23  N    0.331871   0.000582  -0.000120  -0.068946   6.991918   0.004500
    24  C   -0.008878   0.546616   0.004519   0.552361   0.004500   4.826774
    25  H    0.000625   0.359538  -0.006148   0.004753   0.000004  -0.044174
    26  H   -0.045503   0.004874   0.000015   0.348763  -0.007961  -0.041732
    27  H   -0.025333  -0.000029  -0.000007   0.005508   0.302201  -0.000122
    28  H   -0.026497  -0.000005   0.000003  -0.009445   0.311179  -0.000043
    29  H    0.004091  -0.043407  -0.000185  -0.040911  -0.000119   0.355473
    30  S    0.000022  -0.000002  -0.000011   0.000001  -0.000020  -0.000001
              25         26         27         28         29         30
     1  Au   0.000258   0.000267   0.002727   0.001296  -0.000088   0.175517
     2  S   -0.000237  -0.000236   0.026243   0.000855   0.000017  -0.004195
     3  C    0.000000   0.000000   0.000000   0.000000   0.000000   0.245030
     4  C    0.000000   0.000000   0.000000   0.000000   0.000000  -0.061091
     5  C    0.000000   0.000000   0.000000   0.000000   0.000000   0.235577
     6  C    0.000000   0.000000   0.000000   0.000000   0.000000  -0.039824
     7  H    0.000000   0.000000   0.000000   0.000000   0.000000  -0.029866
     8  H    0.000000   0.000000   0.000000   0.000000   0.000000  -0.031931
     9  H    0.000000   0.000000   0.000000   0.000000   0.000000   0.005969
    10  H    0.000000   0.000000   0.000000   0.000000   0.000000  -0.005250
    11  H    0.000000   0.000000   0.000000   0.000000   0.000000  -0.006843
    12  H    0.000000   0.000000   0.000000   0.000000   0.000000  -0.034080
    13  H    0.000000   0.000000   0.000000   0.000000   0.000000  -0.051380
    14  H    0.000000   0.000000   0.000000   0.000000   0.000000   0.003988
    15  H    0.000000   0.000000   0.000000   0.000000   0.000000   0.000493
    16  H    0.000000   0.000000   0.000000   0.000000   0.000000  -0.006748
    17  C    0.004799   0.005839  -0.009958   0.006427   0.000755   0.000385
    18  C   -0.043124   0.000354   0.000331  -0.000093   0.004758   0.000018
    19  C    0.000625  -0.045503  -0.025333  -0.026497   0.004091   0.000022
    20  C    0.359538   0.004874  -0.000029  -0.000005  -0.043407  -0.000002
    21  H   -0.006148   0.000015  -0.000007   0.000003  -0.000185  -0.000011
    22  C    0.004753   0.348763   0.005508  -0.009445  -0.040911   0.000001
    23  N    0.000004  -0.007961   0.302201   0.311179  -0.000119  -0.000020
    24  C   -0.044174  -0.041732  -0.000122  -0.000043   0.355473  -0.000001
    25  H    0.617476  -0.000192   0.000000   0.000000  -0.005728   0.000000
    26  H   -0.000192   0.628768  -0.000140   0.005087  -0.006439   0.000000
    27  H    0.000000  -0.000140   0.374134  -0.027871   0.000003   0.000001
    28  H    0.000000   0.005087  -0.027871   0.425391  -0.000010  -0.000001
    29  H   -0.005728  -0.006439   0.000003  -0.000010   0.615147   0.000000
    30  S    0.000000   0.000000   0.000001  -0.000001   0.000000  15.431005
 Mulliken charges:
               1
     1  Au  -0.068958
     2  S   -0.184249
     3  C   -0.416183
     4  C   -0.460677
     5  C   -0.406001
     6  C   -0.468346
     7  H    0.187986
     8  H    0.210159
     9  H    0.165392
    10  H    0.162985
    11  H    0.209379
    12  H    0.184768
    13  H    0.198570
    14  H    0.170363
    15  H    0.178848
    16  H    0.208291
    17  C   -0.124851
    18  C   -0.146822
    19  C    0.299455
    20  C   -0.128274
    21  H    0.138058
    22  C   -0.167298
    23  N   -0.781313
    24  C   -0.137589
    25  H    0.112151
    26  H    0.108236
    27  H    0.352314
    28  H    0.313727
    29  H    0.116645
    30  S    0.173235
 Sum of Mulliken charges =   0.00000
 Mulliken charges with hydrogens summed into heavy atoms:
               1
     1  Au  -0.068958
     2  S   -0.184249
     3  C   -0.018039
     4  C    0.077079
     5  C   -0.022663
     6  C    0.089155
    17  C   -0.124851
    18  C   -0.008764
    19  C    0.299455
    20  C   -0.016123
    22  C   -0.059061
    23  N   -0.115272
    24  C   -0.020944
    30  S    0.173235
 Electronic spatial extent (au):  <R**2>=           5983.1629
 Charge=              0.0000 electrons
 Dipole moment (field-independent basis, Debye):
    X=              8.0342    Y=              1.2150    Z=              3.4577  Tot=              8.8307
 Quadrupole moment (field-independent basis, Debye-Ang):
   XX=           -101.0393   YY=           -109.0297   ZZ=           -119.0124
   XY=             -0.4039   XZ=             -4.8829   YZ=             -7.9656
 Traceless Quadrupole moment (field-independent basis, Debye-Ang):
   XX=              8.6545   YY=              0.6641   ZZ=             -9.3186
   XY=             -0.4039   XZ=             -4.8829   YZ=             -7.9656
 Octapole moment (field-independent basis, Debye-Ang**2):
  XXX=            200.2759  YYY=            -17.7450  ZZZ=            -14.0395  XYY=             47.5205
  XXY=              6.2687  XXZ=             34.1523  XZZ=             26.7871  YZZ=            -18.7991
  YYZ=              0.7948  XYZ=              8.4073
 Hexadecapole moment (field-independent basis, Debye-Ang**3):
 XXXX=          -5935.1612 YYYY=          -1349.2371 ZZZZ=           -663.7894 XXXY=            -58.5414
 XXXZ=            -96.3136 YYYX=              5.2951 YYYZ=            -35.9635 ZZZX=            -47.9515
 ZZZY=            -28.7420 XXYY=          -1171.3698 XXZZ=          -1075.5792 YYZZ=           -323.4544
 XXYZ=            -49.2154 YYXZ=            -25.6289 ZZXY=             14.5131
 N-N= 1.229044722245D+03 E-N=-5.665569588669D+03  KE= 1.280317820701D+03
   1 Symmetry operations used in ECPInt.
 ECPInt:  NShTT=    5050 NPrTT=   27573 LenC2=    4379 LenP2D=   14650.
 LDataN:  DoStor=T MaxTD1= 8 Len=  415
 Calling FoFJK, ICntrl=      2127 FMM=F ISym2X=0 I1Cent= 0 IOpClX= 0 NMat=1 NMatS=1 NMatT=0.
 Defaulting to unpruned grid for atomic number  79.
 Defaulting to unpruned grid for atomic number  79.
 Defaulting to unpruned grid for atomic number  79.
 Defaulting to unpruned grid for atomic number  79.
 Defaulting to unpruned grid for atomic number  79.
 Defaulting to unpruned grid for atomic number  79.
 Defaulting to unpruned grid for atomic number  79.
 Defaulting to unpruned grid for atomic number  79.
 ***** Axes restored to original set *****
 -------------------------------------------------------------------
 Center     Atomic                   Forces (Hartrees/Bohr)
 Number     Number              X              Y              Z
 -------------------------------------------------------------------
      1       79           0.009637599   -0.011576054    0.006916290
      2       16          -0.005161476    0.005251597   -0.002016296
      3        6          -0.001413858   -0.012076942    0.007189742
      4        6           0.000449018    0.001181679    0.000306878
      5        6          -0.004246237   -0.010987407    0.010762348
      6        6           0.004426765   -0.000532956   -0.007239164
      7        1           0.003540120    0.003893964    0.002214126
      8        1           0.003051639    0.003780652    0.003037550
      9        1          -0.000694536    0.000262265   -0.001079600
     10        1           0.000023375    0.000401886   -0.000363312
     11        1          -0.000027802    0.000747911   -0.000454422
     12        1           0.003662489    0.000250741   -0.005216432
     13        1          -0.000408162    0.001862521    0.001185968
     14        1          -0.001699521   -0.002274700   -0.000878258
     15        1          -0.000125832   -0.000776351   -0.000782027
     16        1          -0.000217302   -0.000300019    0.000203468
     17        6           0.001497695   -0.000124898   -0.000498298
     18        6           0.000068071   -0.000007678    0.000320578
     19        6          -0.000387797   -0.000759651   -0.000336954
     20        6          -0.000300963   -0.000296469    0.000448754
     21        1           0.000021820    0.000091104    0.000038698
     22        6           0.000263376    0.000267981    0.000042986
     23        7           0.000016896    0.000346371    0.000483309
     24        6          -0.000142709   -0.000468481   -0.000302909
     25        1          -0.000083685   -0.000079858   -0.000049818
     26        1          -0.000098888   -0.000020284    0.000085435
     27        1           0.000099747    0.000065274   -0.000304136
     28        1          -0.000062987   -0.000032590   -0.000037095
     29        1          -0.000075042   -0.000056627    0.000007175
     30       16          -0.011611817    0.021967017   -0.013684584
 -------------------------------------------------------------------
 Cartesian Forces:  Max     0.021967017 RMS     0.004465640

 GradGradGradGradGradGradGradGradGradGradGradGradGradGradGradGradGradGrad
 Berny optimization.
 FormGI is forming the generalized inverse of G from B-inverse, IUseBI=4.
 Internal  Forces:  Max     0.010146928 RMS     0.002460226
 Search for a local minimum.
 Step number   1 out of a maximum of  153
 All quantities printed in internal units (Hartrees-Bohrs-Radians)
 Mixed Optimization -- RFO/linear search
 Second derivative matrix not updated -- first step.
 ITU=  0
     Eigenvalues ---    0.00230   0.00230   0.00230   0.00230   0.00230
     Eigenvalues ---    0.00292   0.00302   0.00309   0.01671   0.01814
     Eigenvalues ---    0.01895   0.01941   0.02084   0.02103   0.02118
     Eigenvalues ---    0.02139   0.02148   0.02170   0.02772   0.03845
     Eigenvalues ---    0.03847   0.04175   0.05208   0.05209   0.05388
     Eigenvalues ---    0.05396   0.05553   0.05553   0.09486   0.09491
     Eigenvalues ---    0.12892   0.12896   0.15834   0.15999   0.16000
     Eigenvalues ---    0.16000   0.16000   0.16000   0.16000   0.16000
     Eigenvalues ---    0.16000   0.16000   0.16000   0.16000   0.16000
     Eigenvalues ---    0.18933   0.20029   0.21620   0.21967   0.21977
     Eigenvalues ---    0.22000   0.22097   0.22099   0.22484   0.24462
     Eigenvalues ---    0.24976   0.24987   0.25000   0.25656   0.28957
     Eigenvalues ---    0.29009   0.33980   0.33990   0.34027   0.34121
     Eigenvalues ---    0.34182   0.34191   0.34198   0.34198   0.34240
     Eigenvalues ---    0.34247   0.34980   0.35115   0.35219   0.35240
     Eigenvalues ---    0.40578   0.41484   0.44252   0.45288   0.45344
     Eigenvalues ---    0.45722   0.46058   0.46731   0.47192
 RFO step:  Lambda=-9.91240189D-03 EMin= 2.30000000D-03
 Linear search not attempted -- first point.
 Maximum step size (   0.300) exceeded in Quadratic search.
    -- Step size scaled by   0.674
 Iteration  1 RMS(Cart)=  0.14621056 RMS(Int)=  0.00653012
 Iteration  2 RMS(Cart)=  0.03472363 RMS(Int)=  0.00056120
 Iteration  3 RMS(Cart)=  0.00021928 RMS(Int)=  0.00055166
 Iteration  4 RMS(Cart)=  0.00000024 RMS(Int)=  0.00055166
 Variable       Old X    -DE/DX   Delta X   Delta X   Delta X     New X
                                 (Linear)    (Quad)   (Total)
    R1        4.41073  -0.00599   0.00000  -0.02028  -0.02026   4.39047
    R2        4.37185   0.00875   0.00000   0.02806   0.02804   4.39989
    R3        3.41270  -0.00029   0.00000  -0.00073  -0.00073   3.41197
    R4        2.90094  -0.00296   0.00000  -0.00667  -0.00666   2.89428
    R5        2.07348  -0.00145   0.00000  -0.00279  -0.00279   2.07068
    R6        2.07285  -0.00208   0.00000  -0.00401  -0.00401   2.06885
    R7        3.50920  -0.00740   0.00000  -0.02161  -0.02162   3.48758
    R8        2.07010   0.00087   0.00000   0.00167   0.00167   2.07177
    R9        2.06998  -0.00029   0.00000  -0.00056  -0.00056   2.06942
   R10        2.06915  -0.00046   0.00000  -0.00087  -0.00087   2.06828
   R11        2.89984  -0.00631   0.00000  -0.01418  -0.01418   2.88565
   R12        2.07364  -0.00153   0.00000  -0.00295  -0.00295   2.07068
   R13        2.07126  -0.00080   0.00000  -0.00154  -0.00154   2.06972
   R14        3.50911  -0.00619   0.00000  -0.01807  -0.01807   3.49104
   R15        2.06997  -0.00032   0.00000  -0.00062  -0.00062   2.06935
   R16        2.07025  -0.00028   0.00000  -0.00054  -0.00054   2.06971
   R17        2.06927  -0.00001   0.00000  -0.00003  -0.00003   2.06924
   R18        2.64607  -0.00012   0.00000  -0.00018  -0.00018   2.64589
   R19        2.67953  -0.00010   0.00000  -0.00014  -0.00014   2.67939
   R20        2.63621  -0.00073   0.00000  -0.00104  -0.00104   2.63516
   R21        2.05287   0.00002   0.00000   0.00004   0.00004   2.05291
   R22        2.66031  -0.00009   0.00000  -0.00013  -0.00013   2.66018
   R23        2.62810  -0.00037   0.00000  -0.00052  -0.00052   2.62758
   R24        2.64064   0.00025   0.00000   0.00034   0.00034   2.64098
   R25        2.05320  -0.00011   0.00000  -0.00020  -0.00020   2.05300
   R26        2.62915  -0.00026   0.00000  -0.00037  -0.00037   2.62878
   R27        2.05708  -0.00012   0.00000  -0.00022  -0.00022   2.05686
   R28        1.91643  -0.00017   0.00000  -0.00025  -0.00025   1.91618
   R29        1.91146   0.00002   0.00000   0.00003   0.00003   1.91149
   R30        2.05489  -0.00009   0.00000  -0.00017  -0.00017   2.05472
    A1        1.77009   0.00478   0.00000   0.01239   0.01239   1.78248
    A2        1.93129   0.00119   0.00000   0.01462   0.01469   1.94598
    A3        1.92038   0.00128   0.00000   0.01565   0.01571   1.93609
    A4        1.98382   0.00706   0.00000   0.01863   0.01874   2.00256
    A5        1.87059   0.00134   0.00000   0.00794   0.00721   1.87780
    A6        1.89940  -0.00592   0.00000  -0.03064  -0.03081   1.86859
    A7        1.85353  -0.00551   0.00000  -0.02854  -0.02874   1.82479
    A8        1.92284  -0.00118   0.00000  -0.00511  -0.00512   1.91771
    A9        1.95222  -0.00022   0.00000  -0.00068  -0.00068   1.95154
   A10        1.93941  -0.00071   0.00000  -0.00259  -0.00259   1.93682
   A11        1.87623   0.00067   0.00000   0.00224   0.00223   1.87846
   A12        1.88676   0.00091   0.00000   0.00320   0.00319   1.88995
   A13        1.88391   0.00066   0.00000   0.00339   0.00339   1.88730
   A14        1.93690   0.00489   0.00000   0.00694   0.00573   1.94262
   A15        1.91831   0.00131   0.00000   0.01344   0.01364   1.93195
   A16        1.98201  -0.01015   0.00000  -0.03529  -0.03566   1.94635
   A17        1.86729  -0.00026   0.00000   0.01700   0.01710   1.88439
   A18        1.89892  -0.00146   0.00000  -0.03094  -0.03143   1.86750
   A19        1.85526   0.00620   0.00000   0.03265   0.03303   1.88829
   A20        1.92365  -0.00406   0.00000  -0.01758  -0.01761   1.90604
   A21        1.95122  -0.00055   0.00000  -0.00103  -0.00104   1.95018
   A22        1.93985   0.00058   0.00000   0.00264   0.00262   1.94248
   A23        1.87760   0.00233   0.00000   0.00867   0.00864   1.88624
   A24        1.88539   0.00139   0.00000   0.00328   0.00326   1.88866
   A25        1.88363   0.00052   0.00000   0.00479   0.00478   1.88842
   A26        2.10232  -0.00081   0.00000  -0.00214  -0.00215   2.10018
   A27        2.09943   0.00016   0.00000   0.00038   0.00038   2.09981
   A28        2.08085   0.00064   0.00000   0.00167   0.00166   2.08251
   A29        2.12230  -0.00027   0.00000  -0.00079  -0.00079   2.12151
   A30        2.06257   0.00023   0.00000   0.00078   0.00078   2.06335
   A31        2.09830   0.00004   0.00000   0.00002   0.00002   2.09831
   A32        2.07087  -0.00047   0.00000  -0.00116  -0.00116   2.06972
   A33        2.11351   0.00057   0.00000   0.00147   0.00147   2.11498
   A34        2.09821  -0.00011   0.00000  -0.00029  -0.00029   2.09791
   A35        2.07858  -0.00012   0.00000  -0.00038  -0.00038   2.07819
   A36        2.09816   0.00000   0.00000  -0.00004  -0.00004   2.09812
   A37        2.10644   0.00012   0.00000   0.00042   0.00042   2.10686
   A38        2.11483  -0.00010   0.00000  -0.00025  -0.00025   2.11457
   A39        2.07281   0.00000   0.00000  -0.00004  -0.00004   2.07277
   A40        2.09551   0.00009   0.00000   0.00030   0.00030   2.09581
   A41        1.99250   0.00030   0.00000   0.00111   0.00111   1.99361
   A42        2.01822  -0.00005   0.00000  -0.00027  -0.00027   2.01796
   A43        1.98873  -0.00021   0.00000  -0.00096  -0.00096   1.98777
   A44        2.09881   0.00032   0.00000   0.00092   0.00092   2.09973
   A45        2.10002  -0.00015   0.00000  -0.00043  -0.00043   2.09958
   A46        2.08434  -0.00017   0.00000  -0.00049  -0.00049   2.08385
   A47        2.00549  -0.00105   0.00000  -0.03615  -0.03949   1.96600
   A48        2.00392  -0.00092   0.00000  -0.03569  -0.03902   1.96490
   A49        1.81839  -0.00472   0.00000  -0.04369  -0.04498   1.77341
   A50        3.15334   0.00471   0.00000   0.21134   0.21184   3.36518
   A51        3.14041   0.00381   0.00000   0.17626   0.17663   3.31704
    D1        2.37452   0.00254   0.00000  -0.01236  -0.01079   2.36373
    D2       -1.79644  -0.00320   0.00000  -0.02446  -0.02603  -1.82247
    D3        1.52539   0.00045   0.00000   0.02213   0.02213   1.54753
    D4       -1.65331   0.00034   0.00000   0.01918   0.01918  -1.63413
    D5        1.03780   0.00161   0.00000   0.01351   0.01353   1.05133
    D6       -1.04794   0.00171   0.00000   0.01456   0.01458  -1.03336
    D7        3.12846   0.00152   0.00000   0.01249   0.01252   3.14098
    D8       -1.02609  -0.00158   0.00000  -0.01507  -0.01509  -1.04118
    D9       -3.11183  -0.00148   0.00000  -0.01402  -0.01404  -3.12587
   D10        1.06457  -0.00168   0.00000  -0.01609  -0.01611   1.04847
   D11       -3.10207  -0.00010   0.00000  -0.00195  -0.00195  -3.10402
   D12        1.09538   0.00000   0.00000  -0.00090  -0.00090   1.09448
   D13       -1.01141  -0.00020   0.00000  -0.00297  -0.00297  -1.01437
   D14        0.94550  -0.00257   0.00000  -0.04222  -0.04130   0.90420
   D15       -1.26215   0.00291   0.00000   0.06078   0.05986  -1.20229
   D16        3.10624  -0.00053   0.00000  -0.03326  -0.03267   3.07357
   D17        0.89859   0.00494   0.00000   0.06974   0.06849   0.96708
   D18       -1.16832  -0.00464   0.00000  -0.05338  -0.05213  -1.22045
   D19        2.90721   0.00083   0.00000   0.04962   0.04903   2.95624
   D20        1.03487   0.00314   0.00000   0.02993   0.02998   1.06485
   D21       -1.05248   0.00327   0.00000   0.03145   0.03149  -1.02100
   D22        3.12465   0.00259   0.00000   0.02421   0.02426  -3.13428
   D23       -1.02711  -0.00038   0.00000  -0.00379  -0.00387  -1.03098
   D24       -3.11446  -0.00024   0.00000  -0.00227  -0.00236  -3.11682
   D25        1.06267  -0.00093   0.00000  -0.00951  -0.00959   1.05308
   D26       -3.10266  -0.00253   0.00000  -0.03161  -0.03156  -3.13422
   D27        1.09317  -0.00240   0.00000  -0.03009  -0.03005   1.06312
   D28       -1.01288  -0.00308   0.00000  -0.03733  -0.03728  -1.05017
   D29        1.01773   0.00324   0.00000   0.06556   0.06413   1.08185
   D30       -3.05683  -0.00230   0.00000  -0.03761  -0.03725  -3.09407
   D31       -3.09907   0.00132   0.00000   0.02619   0.02586  -3.07321
   D32       -0.89044  -0.00423   0.00000  -0.07698  -0.07551  -0.96595
   D33       -1.09362   0.00348   0.00000   0.04774   0.04681  -1.04681
   D34        1.11502  -0.00206   0.00000  -0.05543  -0.05457   1.06045
   D35        3.12097  -0.00012   0.00000  -0.00302  -0.00302   3.11795
   D36       -0.02705  -0.00010   0.00000  -0.00254  -0.00254  -0.02959
   D37        0.01610  -0.00001   0.00000  -0.00007  -0.00007   0.01603
   D38       -3.13193   0.00001   0.00000   0.00042   0.00042  -3.13151
   D39       -3.12163   0.00014   0.00000   0.00313   0.00314  -3.11849
   D40       -0.01696   0.00016   0.00000   0.00365   0.00365  -0.01331
   D41       -0.01669   0.00001   0.00000   0.00013   0.00013  -0.01656
   D42        3.08798   0.00002   0.00000   0.00065   0.00065   3.08862
   D43       -0.00449   0.00001   0.00000  -0.00005  -0.00005  -0.00454
   D44        3.13959  -0.00001   0.00000  -0.00028  -0.00028   3.13931
   D45       -3.13952  -0.00002   0.00000  -0.00055  -0.00055  -3.14006
   D46        0.00456  -0.00003   0.00000  -0.00077  -0.00077   0.00378
   D47        0.00624   0.00000   0.00000  -0.00007  -0.00007   0.00617
   D48        3.13825   0.00003   0.00000   0.00055   0.00055   3.13880
   D49       -3.09876  -0.00003   0.00000  -0.00063  -0.00062  -3.09938
   D50        0.03325  -0.00001   0.00000   0.00000   0.00000   0.03325
   D51        0.30594   0.00006   0.00000   0.00099   0.00099   0.30693
   D52        2.66439   0.00001   0.00000   0.00044   0.00044   2.66483
   D53       -2.87315   0.00007   0.00000   0.00150   0.00150  -2.87165
   D54       -0.51470   0.00002   0.00000   0.00095   0.00095  -0.51375
   D55       -0.00636   0.00001   0.00000   0.00013   0.00012  -0.00624
   D56        3.14119  -0.00002   0.00000  -0.00040  -0.00040   3.14079
   D57        3.13274   0.00002   0.00000   0.00035   0.00035   3.13309
   D58       -0.00289  -0.00001   0.00000  -0.00017  -0.00017  -0.00307
   D59        0.00539  -0.00001   0.00000  -0.00006  -0.00006   0.00533
   D60        3.14108   0.00002   0.00000   0.00046   0.00046   3.14154
   D61       -3.12649  -0.00004   0.00000  -0.00070  -0.00070  -3.12719
   D62        0.00919  -0.00001   0.00000  -0.00017  -0.00017   0.00902
         Item               Value     Threshold  Converged?
 Maximum Force            0.010147     0.000450     NO 
 RMS     Force            0.002460     0.000300     NO 
 Maximum Displacement     0.571672     0.001800     NO 
 RMS     Displacement     0.171544     0.001200     NO 
 Predicted change in Energy=-4.996808D-03
 GradGradGradGradGradGradGradGradGradGradGradGradGradGradGradGradGradGrad

                          Input orientation:                          
 ---------------------------------------------------------------------
 Center     Atomic      Atomic             Coordinates (Angstroms)
 Number     Number       Type             X           Y           Z
 ---------------------------------------------------------------------
      1         79           0       -0.249035   -0.899888    0.447010
      2         16           0        1.913664   -1.639618    0.863461
      3          6           0       -3.327621   -0.725946   -1.174056
      4          6           0       -3.746002   -2.015708   -0.461859
      5          6           0       -3.139374    0.905930    1.169567
      6          6           0       -2.354153    1.859402    2.067407
      7          1           0       -4.192306   -0.089427   -1.392808
      8          1           0       -2.830946   -0.947334   -2.124245
      9          1           0       -4.435086   -2.585250   -1.096469
     10          1           0       -4.258836   -1.810465    0.483709
     11          1           0       -2.876367   -2.644963   -0.248147
     12          1           0       -4.020997    1.396723    0.742306
     13          1           0       -3.480156    0.032957    1.736446
     14          1           0       -2.993251    2.182698    2.895761
     15          1           0       -2.026173    2.751445    1.523122
     16          1           0       -1.469143    1.371017    2.488422
     17          6           0        2.904069   -0.212205    0.371983
     18          6           0        3.200452    0.795351    1.297941
     19          6           0        3.429989   -0.124342   -0.941810
     20          6           0        3.986164    1.894727    0.953602
     21          1           0        2.796044    0.705278    2.302183
     22          6           0        4.220736    0.990826   -1.277606
     23          7           0        3.212257   -1.133400   -1.873344
     24          6           0        4.492549    1.987215   -0.345691
     25          1           0        4.200818    2.665089    1.688950
     26          1           0        4.628096    1.059850   -2.284580
     27          1           0        2.448267   -1.757761   -1.639505
     28          1           0        3.222605   -0.843701   -2.842435
     29          1           0        5.106791    2.836180   -0.635881
     30         16           0       -2.113776    0.309583   -0.246530
 ---------------------------------------------------------------------
                    Distance matrix (angstroms):
                    1          2          3          4          5
     1  Au   0.000000
     2  S    2.323338   0.000000
     3  C    3.483648   5.697135   0.000000
     4  C    3.781518   5.824924   1.531585   0.000000
     5  C    3.483838   5.666279   2.861997   3.400811   0.000000
     6  C    3.830259   5.648618   4.258961   4.832277   1.527022
     7  H    4.426191   6.691541   1.095759   2.185500   2.943666
     8  H    3.644156   5.649512   1.094786   2.177677   3.791954
     9  H    4.769256   6.711347   2.165527   1.096333   4.359143
    10  H    4.112056   6.186530   2.188956   1.095090   3.017018
    11  H    3.229769   5.019044   2.177972   1.094486   3.832483
    12  H    4.425983   6.667402   2.942607   3.629093   1.095759
    13  H    3.601804   5.714272   3.011682   3.016662   1.095247
    14  H    4.798900   6.543559   5.013524   5.428338   2.152030
    15  H    4.201008   5.936236   4.589203   5.442766   2.184065
    16  H    3.288318   4.811216   4.611393   5.035687   2.178384
    17  C    3.228096   1.805536   6.441129   6.940559   6.197546
    18  C    3.936607   2.788130   7.144288   7.697543   6.342090
[...]
 665,0.00268476,-0.00840146,-0.01453141,-0.00291548,0.01357344,0.025037
 29,-0.02945673,-0.03376531,-0.00280927,-0.04600125,-0.09795994,0.02800
 916,-0.00611864,-0.00024307,-0.00002749,-0.07000701,-0.18412177,-0.138
 48936,-0.00257250,0.00559136,0.00373928,0.28803246,0.48151658,0.000004
 95,-0.00034711,0.00053070,0.00142431,0.00151009,-0.00147066,-0.0000276
 3,0.00015127,0.00009314,0.00000917,-0.00005698,-0.00004205,-0.00003470
 ,-0.00000589,-0.00012961,0.00002725,-0.00002783,0.00002492,-0.00003885
 ,-0.00006102,-0.00002316,0.00000471,-0.00001451,-0.00000071,-0.0000328
 2,-0.00002076,-0.00000369,0.00001057,0.00000857,0.00000321,-0.00000216
 ,0.00003901,0.00002375,-0.00002979,-0.00000234,0.00004421,0.00003550,-
 0.00001260,0.00002493,-0.00001255,0.00000898,0.00001590,0.00000317,0.0
 0000278,-0.00001240,-0.00000639,0.00000268,-0.00002795,-0.00057540,-0.
 02084645,-0.05644221,0.05489769,0.06215529,0.00694206,-0.05061665,-0.0
 3776646,0.05116040,0.06343190,-0.01913671,-0.30214277,0.00108139,-0.00
 114866,0.00205357,-0.01708721,-0.09423051,-0.24354847,0.00834661,0.007
 98399,-0.00221244,-0.10344029,0.08047696,0.65036024,0.00016969,-0.0000
 0313,0.00003238,-0.00043903,-0.00089897,-0.00028008,-0.00003513,0.0000
 2260,0.00001008,0.00000990,-0.00000273,-0.00000383,-0.00000641,-0.0000
 1257,-0.00004126,-0.00001696,0.00000028,0.00001497,-0.00001185,-0.0000
 1128,-0.00000656,0.00000646,0.00000169,0.00000460,-0.00000250,-0.00000
 157,-0.00000091,-0.00000174,0.00000139,0.00000210,0.00000030,0.0000048
 4,0.00000003,-0.00000552,0.00000804,0.00002005,0.00000458,0.00000413,0
 .00000621,-0.00000437,0.00000644,0.00000477,-0.00000713,0.00000466,-0.
 00000906,-0.00000295,-0.00002357,-0.00001162,0.00139666,-0.00477426,0.
 00275089,-0.00434334,-0.01215132,-0.01822249,-0.00069460,-0.00013989,0
 .00061388,-0.06970325,-0.06662650,-0.05716520,-0.00154841,0.00242420,-
 0.00060264,0.00241104,-0.00290815,0.00317869,-0.00017173,0.00035248,-0
 .00012589,0.00580626,0.00969354,0.00908754,0.06805587,0.00006114,-0.00
 019810,-0.00000454,-0.00063519,-0.00033092,-0.00052577,-0.00000783,0.0
 0002796,0.00003334,0.00000632,-0.00001497,-0.00001274,-0.00001892,-0.0
 0000778,-0.00005514,-0.00000850,-0.00000596,0.00001099,-0.00001292,-0.
 00001106,-0.00000546,0.00000793,-0.00000129,0.00000540,-0.00000806,-0.
 00000631,-0.00000192,-0.00000153,0.00000439,0.00000398,0.00000146,0.00
 001391,0.00000145,-0.00001255,0.00000633,0.00002364,0.00000537,-0.0000
 0058,0.00000680,-0.00000689,0.00000669,0.00000729,0.00000218,0.0000003
 4,-0.00000423,-0.00000075,-0.00000769,-0.00001671,-0.00508171,0.001510
 46,0.00118327,-0.00452233,-0.01113703,-0.01754502,-0.00017443,-0.00036
 216,0.00068110,-0.06645855,-0.15162330,-0.12955369,0.00225768,-0.00103
 333,0.00102016,-0.00257627,0.00320531,-0.00002561,0.00043356,-0.000069
 25,-0.00009944,0.00197353,0.00376688,0.00393369,0.07295376,0.15687024,
 0.00008225,0.00000409,0.00003724,0.00020492,0.00017310,0.00017911,-0.0
 0001276,0.00001831,0.00000482,0.00000538,-0.00000411,-0.00000271,-0.00
 000407,-0.00000843,-0.00002724,-0.00000245,-0.00000410,0.00000884,-0.0
 0000729,-0.00000726,-0.00000334,0.00000433,0.00000039,0.00000318,-0.00
 000246,-0.00000159,-0.00000145,0.00000006,0.00000113,0.00000216,-0.000
 00125,0.00000492,0.00000034,-0.00000474,0.00000318,0.00001065,0.000003
 99,0.00000257,0.00000538,-0.00000135,0.00000312,0.00000370,-0.00000474
 ,0.00000284,-0.00000661,-0.00000130,-0.00001056,-0.00000381,0.00199143
 ,0.00015146,0.00110145,0.00271447,0.00574315,0.00773032,0.00064834,0.0
 0076053,-0.00015220,-0.05712123,-0.12948620,-0.20641887,-0.00113594,0.
 00040211,0.00055114,0.00425884,0.00129594,-0.00333145,-0.00035069,-0.0
 0009319,0.00015918,-0.01167989,-0.01929134,-0.01666928,0.06136161,0.14
 040132,0.21702572,0.00008121,-0.00005556,0.00010973,-0.00072583,-0.000
 23690,0.00061680,-0.00001862,0.00002672,0.00001442,0.00000651,-0.00000
 682,-0.00000657,-0.00001738,0.00000161,-0.00002030,0.00000261,-0.00000
 760,0.00000643,-0.00001032,-0.00001138,-0.00000405,0.00000191,-0.00000
 432,0.00000113,-0.00000533,-0.00000328,-0.00000090,0.00000207,0.000002
 16,-0.00000077,-0.00000009,0.00000635,0.00000399,-0.00000788,0.0000031
 1,0.00001056,0.00000802,-0.00000050,0.00000204,-0.00000133,0.00000275,
 0.00000189,-0.00000403,0.00000424,-0.00000352,-0.00000149,-0.00000647,
 -0.00000445,0.00088431,-0.00505189,0.00039480,-0.00059028,-0.00060354,
 -0.00052782,-0.00489944,-0.00111234,0.02142894,0.00309003,-0.00393944,
 -0.00058811,-0.00038096,0.00046489,-0.00010092,-0.08666328,-0.02129763
 ,0.10349083,-0.00049100,0.00228676,0.00073326,0.00615632,0.00175882,-0
 .01050326,0.00063839,-0.00033924,-0.00042935,0.08548804,0.00008112,-0.
 00004520,-0.00000456,-0.00062684,-0.00044815,0.00087929,-0.00000469,0.
 00001588,0.00001501,0.00000093,-0.00000479,-0.00000684,-0.00001027,-0.
 00000801,-0.00001620,-0.00000367,-0.00000002,0.00000144,-0.00000553,-0
 .00000570,-0.00000265,0.00000133,0.00000091,0.00000100,-0.00000439,-0.
 00000321,-0.00000040,0.00000141,0.00000073,0.00000083,0.00000119,0.000
 00605,0.00000374,-0.00000511,0.00000414,0.00000788,0.00000312,-0.00000
 021,0.00000376,-0.00000164,0.00000164,0.00000252,0.00000067,0.00000011
 ,-0.00000201,-0.00000110,-0.00000474,-0.00000456,-0.00472466,-0.000265
 50,-0.00100117,-0.00054317,-0.00105021,-0.00031196,-0.00908125,0.00179
 288,0.02146920,-0.00431113,0.00045557,-0.00336183,0.00044954,-0.000216
 65,0.00016142,-0.02158448,-0.04948266,0.01412409,0.00270775,0.00006698
 ,0.00079639,0.00986705,0.00468785,-0.01849243,0.00007729,0.00045590,-0
 .00113248,0.02584199,0.04518926,-0.00011895,0.00009400,-0.00001658,0.0
 0001685,-0.00001301,0.00007276,0.00001021,-0.00003669,-0.00002748,-0.0
 0000517,0.00001398,0.00001166,0.00002259,-0.00000067,0.00003760,-0.000
 00674,0.00000978,-0.00000782,0.00001368,0.00001439,0.00000538,-0.00000
 452,0.00000452,-0.00000268,0.00000938,0.00000665,0.00000188,-0.0000020
 8,-0.00000377,-0.00000122,0.00000017,-0.00001382,-0.00000456,0.0000126
 7,-0.00000290,-0.00001517,-0.00001048,0.00000151,-0.00000441,0.0000029
 0,-0.00000301,-0.00000466,-0.00000026,-0.00000193,0.00000389,0.0000023
 7,0.00000212,0.00000780,0.00126579,0.00006726,0.00173979,-0.00037302,-
 0.00018104,0.00050880,0.00111644,-0.00227095,-0.00507703,-0.00157343,-
 0.00457326,-0.00056602,-0.00007078,0.00018348,-0.00012409,0.10288977,0
 .01495042,-0.28644825,-0.00167415,0.00021128,0.00178507,0.01039038,0.0
 0429052,-0.01790016,0.00069073,0.00009686,-0.00099613,-0.11238824,-0.0
 1429766,0.30596065,-0.00027801,0.00033279,0.00046517,-0.00036495,0.000
 84195,0.00025891,-0.00002165,-0.00004567,-0.00003335,-0.00001172,0.000
 02784,0.00001481,0.00005157,0.00001261,0.00009244,0.00000364,0.0000161
 2,-0.00002450,0.00002582,0.00001212,-0.00000403,-0.00002930,0.00000572
 ,-0.00002368,0.00002096,0.00001281,0.00000802,0.00000421,-0.00000970,-
 0.00000746,-0.00001501,-0.00005076,0.00000173,0.00003156,-0.00001803,-
 0.00004010,-0.00001757,-0.00000936,-0.00000478,0.00001089,-0.00001443,
 -0.00001323,0.00000320,-0.00000574,0.00000963,0.00000972,0.00002628,0.
 00003083,-0.00005351,-0.00005273,0.00179615,-0.00068728,-0.00013522,0.
 00009163,-0.00837629,-0.00091247,-0.00125875,-0.00004268,0.00007888,-0
 .00003592,0.00010145,0.00014014,0.00003592,0.00134869,-0.00002875,-0.0
 0064170,-0.31613130,-0.20257554,0.06145068,0.00093118,-0.00097580,0.00
 061563,-0.00006150,0.00001098,-0.00001317,-0.00040434,0.00043197,0.000
 05964,0.32202003,-0.00011730,-0.00015713,-0.00025637,0.00097231,-0.000
 41423,0.00036303,0.00005121,0.00006391,0.00006666,-0.00003682,-0.00003
 373,-0.00004742,-0.00002287,-0.00003191,-0.00006888,0.00000733,-0.0000
 0635,0.00000340,-0.00000779,-0.00002750,-0.00000712,0.00000014,0.00001
 325,-0.00000487,-0.00003808,-0.00001499,-0.00000103,0.00001775,-0.0000
 0694,0.00000191,-0.00000669,0.00004449,0.00003874,-0.00001477,0.000011
 46,0.00001979,0.00000611,0.00000584,0.00001415,-0.00000492,0.00000415,
 0.00000619,0.00000328,-0.00000430,-0.00000057,-0.00000005,-0.00000175,
 -0.00001053,0.00018388,0.00020567,0.00323830,-0.00018395,-0.00075790,0
 .00004016,-0.02315987,-0.02167504,-0.00151192,0.00005414,0.00046596,0.
 00081866,0.00006511,0.00012663,0.00012944,0.00019234,0.00132303,-0.004
 13947,-0.16578302,-0.11195186,0.03041668,-0.00178063,-0.00060170,-0.00
 034175,0.00003410,-0.00003442,0.00000828,0.00033154,-0.00019289,0.0001
 8947,0.19563726,0.14073240,0.00139299,-0.00068157,-0.00048829,-0.00044
 640,0.00099883,0.00058054,-0.00009545,0.00016118,0.00012853,0.00000172
 ,-0.00003581,-0.00005355,-0.00018034,0.00002815,-0.00012336,0.00000583
 ,-0.00002228,0.00002453,-0.00005966,-0.00007108,-0.00002862,0.00000107
 ,-0.00000671,0.00000439,-0.00003678,-0.00002804,0.00000098,0.00001206,
 0.00001139,-0.00000328,0.00001268,0.00004303,0.00002989,-0.00005762,0.
 00002651,0.00008053,0.00003619,-0.00000216,0.00001326,-0.00001435,0.00
 000927,0.00001339,-0.00000741,0.00001137,-0.00002004,-0.00001066,-0.00
 003569,-0.00003545,-0.00114887,-0.00188008,-0.00176547,0.00000302,-0.0
 0014370,0.00016433,-0.02484556,-0.01040082,0.01278943,0.00030911,0.000
 04889,-0.00087435,-0.00007084,-0.00008169,-0.00012154,-0.00116283,-0.0
 0407422,-0.00536225,0.05555281,0.02975936,-0.08325622,-0.00022206,-0.0
 0045441,0.00196031,0.00006787,0.00005100,-0.00004198,-0.00022520,0.000
 06900,0.00011955,-0.05922593,-0.02890502,0.07782192,0.00025227,0.00003
 837,-0.00002530,-0.00089868,0.00027195,0.00205720,-0.00004089,-0.00002
 143,-0.00001481,0.00000875,0.00001201,0.00000936,-0.00000801,0.0000317
 2,0.00005710,0.00000446,0.00000618,-0.00000616,0.00000586,0.00000471,-
 0.00000271,-0.00001817,-0.00000952,-0.00000770,0.00001058,0.00000817,0
 .00000431,-0.00000129,-0.00000049,-0.00000864,0.00000043,-0.00001862,-
 0.00000130,0.00000912,-0.00000373,-0.00001450,0.00000440,-0.00000320,-
 0.00001393,0.00000340,-0.00000492,-0.00000915,-0.00000806,0.00000495,0
 .00000329,-0.00000081,-0.00000494,0.00000994,0.00042828,-0.00221560,-0
 .00259811,0.00134388,-0.00001483,0.00138666,0.00019815,0.01276151,-0.0
 0187031,-0.00060016,-0.00079026,-0.00057270,0.00000335,0.00006507,-0.0
 0009390,-0.00048905,-0.00103894,-0.00194164,-0.03688070,-0.04031217,-0
 .00246311,-0.00031564,0.00080521,0.00018390,-0.00001053,-0.00002382,0.
 00009607,-0.00049124,-0.00080434,0.00084507,0.00217016,-0.00642341,0.0
 3040789,0.03526748,0.00013253,-0.00018396,-0.00005861,-0.00047382,0.00
 052747,0.00083454,0.00000149,0.00006805,0.00007201,-0.00000989,-0.0000
 2491,-0.00003080,-0.00005342,-0.00001263,-0.00006370,0.00000511,-0.000
 00665,0.00000543,-0.00002105,-0.00002584,-0.00000943,0.00000679,0.0000
 0626,0.00000303,-0.00002467,-0.00001682,0.00000026,0.00000627,0.000003
 52,0.00000046,0.00000709,0.00003042,0.00001465,-0.00002198,0.00000983,
 0.00002935,0.00000799,0.00000068,0.00001169,-0.00000759,0.00000290,0.0
 0000812,0.00000598,-0.00000247,-0.00000500,-0.00000224,-0.00000232,-0.
 00001711,-0.00361930,-0.00306267,-0.00184785,0.00037524,0.00023513,-0.
 00151128,0.00514322,0.00548407,-0.03182232,0.00018547,0.00055528,0.000
 10445,-0.00002524,-0.00035306,-0.00027308,0.00195237,0.00092500,-0.001
 04367,-0.04819770,-0.08906215,0.15197976,0.00001823,-0.00036993,0.0003
 1008,0.00002371,-0.00005865,0.00007245,-0.00047264,0.00008278,0.000677
 74,0.00718105,-0.00693429,0.01592478,0.03780548,0.09211776,0.00007718,
 -0.00002794,-0.00009186,-0.00012498,-0.00014994,-0.00022279,0.00000339
 ,0.00002742,0.00002608,-0.00000048,-0.00001070,-0.00000944,-0.00001830
 ,-0.00000838,-0.00002885,0.00000038,-0.00000419,0.00000464,-0.00000966
 ,-0.00000935,-0.00000243,0.00000832,-0.00000134,0.00000368,-0.00000808
 ,-0.00000713,0.00000020,0.00000042,0.00000241,0.00000025,0.00000242,0.
 00001131,0.00000240,-0.00000941,0.00000548,0.00001234,0.00000470,0.000
 00272,0.00000345,-0.00000243,0.00000210,0.00000354,0.00000262,-0.00000
 101,-0.00000207,-0.00000097,-0.00000188,-0.00000818,-0.00278221,-0.002
 40794,-0.00079908,0.00155507,0.00042166,-0.00069601,0.00180237,0.00989
 159,-0.02476929,-0.00047287,0.00001045,0.00103556,-0.00020065,-0.00029
 170,-0.00016249,0.00247033,0.00235767,0.00279600,0.02752305,0.12456036
 ,-0.38953591,0.00061825,-0.00135578,-0.00103917,-0.00017327,0.00008994
 ,0.00000600,-0.00138840,-0.00003539,0.00020508,-0.00336996,0.00019171,
 -0.00140110,-0.02550175,-0.13337822,0.41465290,0.00003466,-0.00014559,
 -0.00000277,-0.00042971,0.00037045,-0.00010191,-0.00000572,0.00001745,
 0.00001632,0.00000676,-0.00000963,-0.00000592,-0.00001599,-0.00000103,
 -0.00003727,0.00000202,-0.00001051,0.00001040,-0.00000904,-0.00000689,
 -0.00000270,0.00000578,-0.00000246,0.00000360,-0.00000521,-0.00000303,
 -0.00000224,0.00000019,0.00000260,0.00000207,-0.00000085,0.00000970,0.
 00000139,-0.00000964,0.00000248,0.00001542,0.00000780,0.00000110,0.000
 00461,-0.00000174,0.00000396,0.00000428,-0.00000452,0.00000373,-0.0000
 0660,-0.00000093,-0.00000761,-0.00000547,0.00008435,0.00068360,-0.0003
 2413,0.00353908,-0.00214494,0.00362479,0.00459563,-0.00341068,-0.00036
 318,-0.00516188,-0.00823820,0.00012299,-0.00022532,-0.00052058,0.00005
 641,-0.00411361,-0.00541024,0.00351432,-0.00035501,-0.00058009,0.00022
 668,-0.17814973,-0.14444354,0.04372449,-0.00145651,0.00218370,-0.00058
 238,-0.00164506,0.00223312,-0.00115382,-0.00002443,0.00005574,-0.00019
 329,0.00000171,0.00002616,0.00000674,0.18335301,0.00012340,0.00004770,
 0.00003515,0.00023792,-0.00035340,0.00011745,-0.00001280,0.00002846,0.
 00001222,0.00000276,-0.00000575,-0.00000637,-0.00001029,-0.00000485,-0
 .00002278,0.00000340,-0.00000539,0.00000632,-0.00001105,-0.00001095,-0
 .00000413,0.00000488,-0.00000151,0.00000315,-0.00000442,-0.00000481,-0
 .00000151,0.00000077,0.00000243,0.00000231,0.00000078,0.00000708,0.000
 00083,-0.00000825,0.00000273,0.00000891,0.00000424,0.00000030,0.000003
 74,-0.00000347,0.00000224,0.00000410,0.00000113,0.00000052,-0.00000302
 ,-0.00000125,-0.00000184,-0.00000744,0.00067179,-0.00007678,-0.0003866
 6,-0.00241116,0.00390548,-0.00034688,-0.00308761,0.00223764,-0.0043836
 4,-0.00072359,0.00120268,-0.00063475,-0.00014438,0.00003311,-0.0001285
 5,-0.01310326,-0.01042271,0.00621809,-0.00094158,-0.00063521,0.0003539
 2,-0.14424950,-0.18319469,0.03554212,0.00196456,-0.00102835,0.00098623
 ,0.00241086,-0.00103460,0.00062194,0.00001852,-0.00024641,-0.00026221,
 -0.00003310,0.00002136,0.00008371,0.15929604,0.18955229,-0.00004472,-0
 .00002057,0.00000736,-0.00004019,0.00025324,0.00016721,0.00000368,-0.0
 0000748,-0.00000370,0.00000008,0.00000080,0.00000202,0.00000588,-0.000
 00012,0.00000497,-0.00000487,0.00000221,-0.00000246,0.00000304,0.00000
 299,0.00000128,-0.00000081,-0.00000004,-0.00000073,0.00000117,0.000001
 52,0.00000033,-0.00000033,-0.00000057,-0.00000059,-0.00000066,-0.00000
 173,-0.00000046,0.00000302,-0.00000063,-0.00000182,-0.00000124,-0.0000
 0086,-0.00000096,0.00000161,0.00000010,-0.00000126,0.00000077,-0.00000
 019,0.00000220,-0.00000058,0.00000098,0.00000131,-0.00030780,-0.000510
 11,-0.00104587,0.00263592,-0.00147301,-0.00512703,0.00031928,-0.003865
 37,-0.00293678,0.02047318,0.02210283,-0.00012281,0.00113168,0.00109550
 ,-0.00014324,-0.01690918,-0.01639087,0.00857730,-0.00091976,-0.0004703
 2,0.00084529,0.04407632,0.03589576,-0.07131336,-0.00120521,0.00030469,
 0.00083773,-0.00060999,0.00113394,0.00072826,-0.00008873,-0.00025718,-
 0.00030957,0.00004641,-0.00000565,0.00001984,-0.04855354,-0.03780438,0
 .06982204,-0.04639057,0.02369838,-0.01531638,-0.00165457,0.00337873,-0
 .00127760,-0.07410734,-0.02741778,0.00486116,-0.00527081,-0.00957080,-
 0.00429325,-0.06935603,-0.01387455,0.02466527,0.00843202,0.00174488,-0
 .00814746,-0.01529735,-0.02377414,-0.01424678,0.00578751,0.00745481,0.
 00225230,0.00098975,-0.00084825,0.00169283,-0.00001039,0.00036311,-0.0
 0025805,0.00150699,0.00135021,0.00042947,-0.01193543,0.00456604,0.0279
 1621,-0.00262471,0.00184942,0.00642693,-0.00104811,-0.00272022,-0.0025
 8247,0.00049916,0.00033054,-0.00007992,0.00032139,-0.00056308,-0.00145
 585,-0.00141783,-0.00179365,0.00105940,0.00057112,0.00072416,0.0004222
 2,-0.00032448,-0.00081302,-0.00123643,-0.00037909,-0.00031952,0.000682
 11,-0.00009625,0.00002805,-0.00011228,0.00033360,0.00018186,-0.0001433
 6,0.00034019,0.00081666,0.00046979,-0.00015699,-0.00028819,-0.00048109
 ,0.00002435,-0.00000814,-0.00001664,-0.00000152,0.00001375,0.00003299,
 -0.00021353,-0.00003208,0.00020002,0.00005099,0.00004534,-0.00001183,-
 0.00001608,0.00000466,-0.00001442,0.21144402,0.01254032,-0.03265950,0.
 00588904,0.00072335,0.00724892,-0.00043225,-0.03166251,-0.07584270,-0.
 00357486,-0.02066199,-0.02434530,-0.01553563,0.00238600,-0.03971235,-0
 .00838505,0.01076752,-0.00435063,-0.02118914,-0.00040858,0.00218746,-0
 .00111001,-0.00539421,-0.00571703,-0.00483293,0.00007975,-0.00466735,0
 .00455883,0.00029658,0.00154701,-0.00035725,0.00001476,0.00140513,-0.0
 0077971,0.00269903,-0.00102649,-0.00807045,-0.00969319,0.00670474,0.01
 283920,-0.00218682,-0.00337440,-0.00169771,0.00070450,-0.00024218,-0.0
 0042071,0.00045604,0.00072425,0.00041052,0.00372444,0.00010164,0.00014
 047,-0.00004692,-0.00071402,-0.00052608,0.00032260,0.00068647,0.001229
 26,0.00010633,0.00044154,-0.00056345,0.00013069,-0.00009351,0.00009736
 ,-0.00040104,-0.00005798,0.00006631,-0.00010696,-0.00083948,-0.0004744
 1,0.00015317,0.00022278,0.00038652,-0.00002375,0.00006275,0.00000413,0
 .00000776,0.00000183,-0.00003723,0.00004715,0.00009653,-0.00005724,-0.
 00009202,0.00004583,0.00003237,0.00004518,-0.00001677,0.00001452,0.035
 47282,0.17218281,-0.00790217,0.00493957,-0.02503558,-0.00090757,-0.000
 05968,0.00611663,-0.01476387,-0.02453507,-0.04905835,0.00421981,0.0021
 1915,0.00530613,0.03980409,0.01669081,-0.09138042,0.00570025,-0.009261
 88,-0.01803339,-0.00286710,-0.00586661,-0.00367464,-0.01739943,-0.0185
 6086,-0.01060360,0.00063006,0.00200970,-0.00050632,0.00073743,0.000536
 37,-0.00010637,0.00060352,0.00011923,0.00057561,0.00230667,-0.00217912
 ,-0.00366060,0.01475923,-0.00861048,-0.02226746,-0.00200745,-0.0010699
 4,0.00067473,-0.00022850,0.00100999,0.00135735,-0.00000245,0.00021938,
 -0.00005358,-0.00128257,0.00010259,0.00041897,0.00039690,0.00034808,0.
 00017789,-0.00046956,-0.00031898,-0.00037219,-0.00025629,-0.00008753,0
 .00027223,0.00002562,-0.00002505,-0.00006620,0.00026971,0.00006078,0.0
 0001775,0.00023977,0.00016236,-0.00002683,-0.00005119,-0.00012998,-0.0
 0025925,0.00000163,-0.00000464,-0.00001189,-0.00001295,0.00000065,0.00
 000808,-0.00014590,0.00000558,0.00015351,0.00003851,0.00001795,-0.0000
 0327,0.00000068,-0.00000790,-0.00000654,-0.02143689,0.04237556,0.21004
 759\\0.00000799,0.00000042,-0.00000157,-0.00000001,-0.00000563,-0.0000
 0487,0.00000443,0.00000933,0.00000314,-0.00000127,-0.00000029,-0.00000
 323,0.00000537,-0.00000832,-0.00000582,-0.00000227,0.00000303,0.000000
 39,-0.00000113,0.00000610,-0.00000429,0.00000002,0.00000691,-0.0000031
 6,-0.00000099,0.00000528,-0.00000725,-0.00000258,0.00000132,-0.0000084
 4,-0.00000224,0.00000281,-0.00000677,-0.00000090,0.00000484,-0.0000051
 1,-0.00000102,0.00000331,0.00000153,0.00000147,-0.00000197,0.00000202,
 0.00000133,-0.00000105,0.00000279,0.00000112,-0.00000341,0.00000236,-0
 .00000603,-0.00000244,0.00000313,0.00000481,0.00000030,0.00000013,0.00
 000037,-0.00000072,0.00000204,-0.00000227,-0.00000545,0.00000745,-0.00
 000058,-0.00000668,0.00000228,0.00000264,-0.00000089,0.00000501,0.0000
 0694,-0.00000176,-0.00000164,0.00000124,-0.00000383,0.00000253,0.00000
 112,-0.00000565,0.00000506,0.00000144,0.00000007,0.00000351,-0.0000039
 6,0.00000161,0.00000033,-0.00000285,0.00000356,-0.00000074,0.00000196,
 -0.00000280,0.00000603,-0.00001413,0.00000201,0.00000319\\\@


 Ideas are like rabbits. You get a couple and learn
 how to handle them, and pretty soon you have a dozen.
                                    -- John Steinbeck
 Job cpu time:       0 days  0 hours 27 minutes 15.4 seconds.
 File lengths (MBytes):  RWF=    277 Int=      0 D2E=      0 Chk=      7 Scr=      1
 Normal termination of Gaussian 09 at Thu Jul 20 13:11:26 2023.
