 Entering Gaussian System, Link 0=g09
 Input=cpx-new-1-p.com
 Output=cpx-new-1-p.log
 Initial command:
 /home/scr/programs/g09/l1.exe "/home/scr/guest2/Gau-13749.inp" -scrdir="/home/scr/guest2/"
 Entering Link 1 = /home/scr/programs/g09/l1.exe PID=     13750.
  
 Copyright (c) 1988,1990,1992,1993,1995,1998,2003,2009,2013,
            Gaussian, Inc.  All Rights Reserved.
  
 This is part of the Gaussian(R) 09 program.  It is based on
 the Gaussian(R) 03 system (copyright 2003, Gaussian, Inc.),
 the Gaussian(R) 98 system (copyright 1998, Gaussian, Inc.),
 the Gaussian(R) 94 system (copyright 1995, Gaussian, Inc.),
 the Gaussian 92(TM) system (copyright 1992, Gaussian, Inc.),
 the Gaussian 90(TM) system (copyright 1990, Gaussian, Inc.),
 the Gaussian 88(TM) system (copyright 1988, Gaussian, Inc.),
 the Gaussian 86(TM) system (copyright 1986, Carnegie Mellon
 University), and the Gaussian 82(TM) system (copyright 1983,
 Carnegie Mellon University). Gaussian is a federally registered
 trademark of Gaussian, Inc.
  
 This software contains proprietary and confidential information,
 including trade secrets, belonging to Gaussian, Inc.
  
 This software is provided under written license and may be
 used, copied, transmitted, or stored only in accord with that
 written license.
  
 The following legend is applicable only to US Government
 contracts under FAR:
  
                    RESTRICTED RIGHTS LEGEND
  
 Use, reproduction and disclosure by the US Government is
 subject to restrictions as set forth in subparagraphs (a)
 and (c) of the Commercial Computer Software - Restricted
 Rights clause in FAR 52.227-19.
  
 Gaussian, Inc.
 340 Quinnipiac St., Bldg. 40, Wallingford CT 06492
  
  
 ---------------------------------------------------------------
 Warning -- This program may not be used in any manner that
 competes with the business of Gaussian, Inc. or will provide
 assistance to any competitor of Gaussian, Inc.  The licensee
 of this program is prohibited from giving any competitor of
 Gaussian, Inc. access to this program.  By using this program,
 the user acknowledges that Gaussian, Inc. is engaged in the
 business of creating and licensing software in the field of
 computational chemistry and represents and warrants to the
 licensee that it is not a competitor of Gaussian, Inc. and that
 it will not use this program in any manner prohibited above.
 ---------------------------------------------------------------
  

 Cite this work as:
 Gaussian 09, Revision D.01,
 M. J. Frisch, G. W. Trucks, H. B. Schlegel, G. E. Scuseria, 
 M. A. Robb, J. R. Cheeseman, G. Scalmani, V. Barone, B. Mennucci, 
 G. A. Petersson, H. Nakatsuji, M. Caricato, X. Li, H. P. Hratchian, 
 A. F. Izmaylov, J. Bloino, G. Zheng, J. L. Sonnenberg, M. Hada, 
 M. Ehara, K. Toyota, R. Fukuda, J. Hasegawa, M. Ishida, T. Nakajima, 
 Y. Honda, O. Kitao, H. Nakai, T. Vreven, J. A. Montgomery, Jr., 
 J. E. Peralta, F. Ogliaro, M. Bearpark, J. J. Heyd, E. Brothers, 
 K. N. Kudin, V. N. Staroverov, T. Keith, R. Kobayashi, J. Normand, 
 K. Raghavachari, A. Rendell, J. C. Burant, S. S. Iyengar, J. Tomasi, 
 M. Cossi, N. Rega, J. M. Millam, M. Klene, J. E. Knox, J. B. Cross, 
 V. Bakken, C. Adamo, J. Jaramillo, R. Gomperts, R. E. Stratmann, 
 O. Yazyev, A. J. Austin, R. Cammi, C. Pomelli, J. W. Ochterski, 
 R. L. Martin, K. Morokuma, V. G. Zakrzewski, G. A. Voth, 
 P. Salvador, J. J. Dannenberg, S. Dapprich, A. D. Daniels, 
 O. Farkas, J. B. Foresman, J. V. Ortiz, J. Cioslowski, 
 and D. J. Fox, Gaussian, Inc., Wallingford CT, 2013.
 
 ******************************************
 Gaussian 09:  EM64L-G09RevD.01 24-Apr-2013
                20-Jul-2023 
 ******************************************
 %mem=50000MB
 %nprocshared=18
 Will use up to   18 processors via shared memory.
 ----------------------------------------
 # opt freq=noraman b3lyp/gen pseudo=read
 ----------------------------------------
 1/14=-1,18=20,19=15,26=3,38=1/1,3;
 2/9=110,12=2,17=6,18=5,40=1/2;
 3/5=7,11=2,16=1,17=8,25=1,30=1,71=1,74=-5/1,2,3;
 4//1;
 5/5=2,38=5/2;
 6/7=2,8=2,9=2,10=2,28=1/1;
 7//1,2,3,16;
 1/14=-1,18=20,19=15,26=3/3(2);
 2/9=110/2;
 99//99;
 2/9=110/2;
 3/5=7,6=1,11=2,16=1,17=8,25=1,30=1,71=1,74=-5,82=7/1,2,3;
 4/5=5,16=3,69=1/1;
 5/5=2,38=5/2;
 7//1,2,3,16;
 1/14=-1,18=20,19=15,26=3/3(-5);
 2/9=110/2;
 6/7=2,8=2,9=2,10=2,19=2,28=1/1;
 99/9=1/99;
 -------------------
 Title Card Required
 -------------------
 Symbolic Z-matrix:
 Charge =  0 Multiplicity = 1
 Au                   -2.5464   -0.75824  -0.12989 
 C                    -5.8025    0.36058  -1.08269 
 H                    -6.2628   -0.62544  -1.11913 
 H                    -5.1097    0.43938  -1.92949 
 C                    -5.48009  -0.90354   1.49991 
 H                    -4.75103  -1.04606   2.29491 
 H                    -5.52799  -1.82931   0.91442 
 C                    -6.82592   1.49366  -1.08842 
 H                    -7.52814   1.42778  -0.25845 
 H                    -6.33317   2.4677   -1.03917 
 H                    -7.39794   1.45416  -2.0315 
 C                    -6.84794  -0.5002    2.05284 
 H                    -7.19521  -1.2894    2.7344 
 H                    -6.79269   0.43515   2.62266 
 H                    -7.59812  -0.39064   1.27038 
 S                    -2.23562   0.3998   -2.36885 
 N                     6.63377   2.87136   0.29056 
 C                     5.24303   2.5986    0.6648 
 C                     5.01713   1.1056    0.96162 
 O                     5.52666   0.26766   0.20743 
 C                     4.35733   3.04092  -0.5136 
 O                     2.97263   2.78027  -0.30279 
 N                     4.32615   0.69825   2.06878 
 C                     3.53482   1.50327   2.98905 
 C                     2.1134    1.88163   2.50235 
 O                     1.86936   3.05837   2.22251 
 N                     1.17973   0.90541   2.40196 
 C                     1.35066  -0.53092   2.59701 
 C                     1.97871  -1.29356   1.4176 
 O                     2.76705  -2.20855   1.66387 
 C                     0.03963  -1.22525   3.06379 
 S                    -1.69211  -0.67959   2.50409 
 N                     1.58387  -0.94322   0.1659 
 C                     1.69155  -1.90139  -0.94541 
 C                     0.30925  -2.37918  -1.47838 
 C                     2.46836  -1.23038  -2.09647 
 O                     1.91337  -0.42948  -2.85037 
 N                     3.77468  -1.55359  -2.24185 
 C                     4.61217  -2.32374  -1.33426 
 C                     6.06799  -2.05504  -1.68322 
 O                     6.43296  -1.36064  -2.61342 
 O                     6.89876  -2.70842  -0.85995 
 H                     4.54454   4.10451  -0.71123 
 H                     4.63384   2.4716   -1.40291 
 H                     2.69025   3.19532   0.54635 
 H                     5.00118   3.21642   1.52877 
 H                     6.92983   2.12366  -0.34462 
 H                     7.23574   2.77621   1.10717 
 H                     4.03045   2.44711   3.20266 
 H                     3.46904   0.94614   3.93827 
 H                     4.2278   -0.31187   2.11932 
 H                    -0.02623  -1.04273   4.17264 
 H                     0.17012  -2.32338   2.90637 
 H                     2.06522  -0.69601   3.41771 
 H                     0.24706   1.1989    2.0987 
 H                     0.45614  -3.31027  -2.0513 
 H                    -0.10897  -1.63871  -2.17176 
 H                     2.2314   -2.74665  -0.54463 
 H                     0.98022  -0.14374   0.03151 
 H                     4.44301  -3.40769  -1.41591 
 H                     4.45853  -2.04347  -0.29016 
 H                     4.28274  -1.02958  -2.95072 
 H                     7.8016   -2.47988  -1.14089 
 Se                   -0.96414  -2.6243    0.00348 
 C                    -1.94774   2.0164   -1.74307 
 C                    -2.99087   2.97278  -1.74847 
 C                    -0.66673   2.40418  -1.22444 
 C                    -2.82172   4.2448   -1.22208 
 H                    -3.94688   2.69595  -2.19541 
 C                    -0.52593   3.68729  -0.66756 
 C                    -1.57176   4.59347  -0.65577 
 H                    -3.63545   4.96428  -1.25077 
 H                     0.43071   3.96565  -0.23881 
 H                    -1.43198   5.57926  -0.23301 
 N                     0.40193   1.54037  -1.21939 
 H                     0.43983   0.82749  -1.95288 
 H                     1.32185   1.96682  -1.0584 
 S                    -4.70992   0.40322   0.42336 
 

 GradGradGradGradGradGradGradGradGradGradGradGradGradGradGradGradGradGrad
 Berny optimization.
 Initialization pass.
                           ----------------------------
                           !    Initial Parameters    !
                           ! (Angstroms and Degrees)  !
 --------------------------                            --------------------------
 ! Name  Definition              Value          Derivative Info.                !
 --------------------------------------------------------------------------------
 ! R1    R(1,16)                 2.5398         estimate D2E/DX2                !
 ! R2    R(1,32)                 2.7702         estimate D2E/DX2                !
 ! R3    R(1,64)                 2.4502         estimate D2E/DX2                !
 ! R4    R(1,78)                 2.5171         estimate D2E/DX2                !
 ! R5    R(2,3)                  1.0888         estimate D2E/DX2                !
 ! R6    R(2,4)                  1.0969         estimate D2E/DX2                !
 ! R7    R(2,8)                  1.5269         estimate D2E/DX2                !
 ! R8    R(2,78)                 1.8611         estimate D2E/DX2                !
 ! R9    R(5,6)                  1.0881         estimate D2E/DX2                !
 ! R10   R(5,7)                  1.0964         estimate D2E/DX2                !
 ! R11   R(5,12)                 1.5295         estimate D2E/DX2                !
 ! R12   R(5,78)                 1.86           estimate D2E/DX2                !
 ! R13   R(8,9)                  1.0892         estimate D2E/DX2                !
 ! R14   R(8,10)                 1.0927         estimate D2E/DX2                !
 ! R15   R(8,11)                 1.1037         estimate D2E/DX2                !
 ! R16   R(12,13)                1.0991         estimate D2E/DX2                !
 ! R17   R(12,14)                1.0966         estimate D2E/DX2                !
 ! R18   R(12,15)                1.0895         estimate D2E/DX2                !
 ! R19   R(16,65)                1.7572         estimate D2E/DX2                !
 ! R20   R(17,18)                1.4658         estimate D2E/DX2                !
 ! R21   R(17,47)                1.0248         estimate D2E/DX2                !
 ! R22   R(17,48)                1.019          estimate D2E/DX2                !
 ! R23   R(18,19)                1.5389         estimate D2E/DX2                !
 ! R24   R(18,21)                1.5391         estimate D2E/DX2                !
 ! R25   R(18,46)                1.0893         estimate D2E/DX2                !
 ! R26   R(19,20)                1.2372         estimate D2E/DX2                !
 ! R27   R(19,23)                1.3672         estimate D2E/DX2                !
 ! R28   R(21,22)                1.4247         estimate D2E/DX2                !
 ! R29   R(21,43)                1.0979         estimate D2E/DX2                !
 ! R30   R(21,44)                1.0915         estimate D2E/DX2                !
 ! R31   R(22,45)                0.9864         estimate D2E/DX2                !
 ! R32   R(23,24)                1.4564         estimate D2E/DX2                !
 ! R33   R(23,51)                1.0161         estimate D2E/DX2                !
 ! R34   R(24,25)                1.5493         estimate D2E/DX2                !
 ! R35   R(24,49)                1.0872         estimate D2E/DX2                !
 ! R36   R(24,50)                1.1026         estimate D2E/DX2                !
 ! R37   R(25,26)                1.2339         estimate D2E/DX2                !
 ! R38   R(25,27)                1.3546         estimate D2E/DX2                !
 ! R39   R(27,28)                1.4596         estimate D2E/DX2                !
 ! R40   R(27,55)                1.0237         estimate D2E/DX2                !
 ! R41   R(28,29)                1.5385         estimate D2E/DX2                !
 ! R42   R(28,31)                1.5552         estimate D2E/DX2                !
 ! R43   R(28,54)                1.1006         estimate D2E/DX2                !
 ! R44   R(29,30)                1.2326         estimate D2E/DX2                !
 ! R45   R(29,33)                1.3585         estimate D2E/DX2                !
 ! R46   R(31,32)                1.9            estimate D2E/DX2                !
 ! R47   R(31,52)                1.1257         estimate D2E/DX2                !
 ! R48   R(31,53)                1.117          estimate D2E/DX2                !
 ! R49   R(33,34)                1.4713         estimate D2E/DX2                !
 ! R50   R(33,59)                1.0108         estimate D2E/DX2                !
 ! R51   R(34,35)                1.5566         estimate D2E/DX2                !
 ! R52   R(34,36)                1.5423         estimate D2E/DX2                !
 ! R53   R(34,58)                1.0801         estimate D2E/DX2                !
 ! R54   R(35,56)                1.1031         estimate D2E/DX2                !
 ! R55   R(35,57)                1.0973         estimate D2E/DX2                !
 ! R56   R(35,64)                1.9691         estimate D2E/DX2                !
 ! R57   R(36,37)                1.232          estimate D2E/DX2                !
 ! R58   R(36,38)                1.3535         estimate D2E/DX2                !
 ! R59   R(38,39)                1.4554         estimate D2E/DX2                !
 ! R60   R(38,62)                1.0175         estimate D2E/DX2                !
 ! R61   R(39,40)                1.521          estimate D2E/DX2                !
 ! R62   R(39,60)                1.1001         estimate D2E/DX2                !
 ! R63   R(39,61)                1.0919         estimate D2E/DX2                !
 ! R64   R(40,41)                1.2168         estimate D2E/DX2                !
 ! R65   R(40,42)                1.3397         estimate D2E/DX2                !
 ! R66   R(42,63)                0.9728         estimate D2E/DX2                !
 ! R67   R(65,66)                1.4152         estimate D2E/DX2                !
 ! R68   R(65,67)                1.4354         estimate D2E/DX2                !
 ! R69   R(66,68)                1.387          estimate D2E/DX2                !
 ! R70   R(66,69)                1.091          estimate D2E/DX2                !
 ! R71   R(67,70)                1.4058         estimate D2E/DX2                !
 ! R72   R(67,75)                1.3741         estimate D2E/DX2                !
 ! R73   R(68,71)                1.4159         estimate D2E/DX2                !
 ! R74   R(68,72)                1.0866         estimate D2E/DX2                !
 ! R75   R(70,71)                1.3839         estimate D2E/DX2                !
 ! R76   R(70,73)                1.0846         estimate D2E/DX2                !
 ! R77   R(71,74)                1.0817         estimate D2E/DX2                !
 ! R78   R(75,76)                1.0235         estimate D2E/DX2                !
 ! R79   R(75,77)                1.0267         estimate D2E/DX2                !
 ! A1    A(16,1,32)            141.9554         estimate D2E/DX2                !
 ! A2    A(16,1,64)            108.4345         estimate D2E/DX2                !
 ! A3    A(16,1,78)             95.0799         estimate D2E/DX2                !
 ! A4    A(32,1,64)             76.7451         estimate D2E/DX2                !
 ! A5    A(32,1,78)             92.4633         estimate D2E/DX2                !
 ! A6    A(64,1,78)            153.4446         estimate D2E/DX2                !
 ! A7    A(3,2,4)              107.8322         estimate D2E/DX2                !
 ! A8    A(3,2,8)              112.8651         estimate D2E/DX2                !
 ! A9    A(3,2,78)             107.2186         estimate D2E/DX2                !
 ! A10   A(4,2,8)              111.5392         estimate D2E/DX2                !
 ! A11   A(4,2,78)             104.6119         estimate D2E/DX2                !
 ! A12   A(8,2,78)             112.3045         estimate D2E/DX2                !
 ! A13   A(6,5,7)              107.9898         estimate D2E/DX2                !
 ! A14   A(6,5,12)             111.6928         estimate D2E/DX2                !
 ! A15   A(6,5,78)             103.7378         estimate D2E/DX2                !
 ! A16   A(7,5,12)             112.1248         estimate D2E/DX2                !
 ! A17   A(7,5,78)             107.5911         estimate D2E/DX2                !
 ! A18   A(12,5,78)            113.2202         estimate D2E/DX2                !
 ! A19   A(2,8,9)              112.6065         estimate D2E/DX2                !
 ! A20   A(2,8,10)             111.0438         estimate D2E/DX2                !
 ! A21   A(2,8,11)             108.907          estimate D2E/DX2                !
 ! A22   A(9,8,10)             108.078          estimate D2E/DX2                !
 ! A23   A(9,8,11)             108.3499         estimate D2E/DX2                !
 ! A24   A(10,8,11)            107.7056         estimate D2E/DX2                !
 ! A25   A(5,12,13)            108.5058         estimate D2E/DX2                !
 ! A26   A(5,12,14)            111.5736         estimate D2E/DX2                !
 ! A27   A(5,12,15)            112.4989         estimate D2E/DX2                !
 ! A28   A(13,12,14)           107.8273         estimate D2E/DX2                !
 ! A29   A(13,12,15)           107.4581         estimate D2E/DX2                !
 ! A30   A(14,12,15)           108.7892         estimate D2E/DX2                !
 ! A31   A(1,16,65)             97.214          estimate D2E/DX2                !
 ! A32   A(18,17,47)           107.2531         estimate D2E/DX2                !
 ! A33   A(18,17,48)           109.7867         estimate D2E/DX2                !
 ! A34   A(47,17,48)           104.9473         estimate D2E/DX2                !
 ! A35   A(17,18,19)           111.6571         estimate D2E/DX2                !
 ! A36   A(17,18,21)           107.2802         estimate D2E/DX2                !
 ! A37   A(17,18,46)           107.9154         estimate D2E/DX2                !
 ! A38   A(19,18,21)           110.0004         estimate D2E/DX2                !
 ! A39   A(19,18,46)           111.3876         estimate D2E/DX2                !
 ! A40   A(21,18,46)           108.4506         estimate D2E/DX2                !
 ! A41   A(18,19,20)           118.6249         estimate D2E/DX2                !
 ! A42   A(18,19,23)           121.2954         estimate D2E/DX2                !
 ! A43   A(20,19,23)           120.0013         estimate D2E/DX2                !
 ! A44   A(18,21,22)           113.1695         estimate D2E/DX2                !
 ! A45   A(18,21,43)           108.5491         estimate D2E/DX2                !
 ! A46   A(18,21,44)           109.1544         estimate D2E/DX2                !
 ! A47   A(22,21,43)           111.6918         estimate D2E/DX2                !
 ! A48   A(22,21,44)           105.7441         estimate D2E/DX2                !
 ! A49   A(43,21,44)           108.3865         estimate D2E/DX2                !
 ! A50   A(21,22,45)           109.1849         estimate D2E/DX2                !
 ! A51   A(19,23,24)           128.4338         estimate D2E/DX2                !
 ! A52   A(19,23,51)           112.6666         estimate D2E/DX2                !
 ! A53   A(24,23,51)           117.7394         estimate D2E/DX2                !
 ! A54   A(23,24,25)           115.7836         estimate D2E/DX2                !
 ! A55   A(23,24,49)           110.8731         estimate D2E/DX2                !
 ! A56   A(23,24,50)           107.2831         estimate D2E/DX2                !
 ! A57   A(25,24,49)           105.5415         estimate D2E/DX2                !
 ! A58   A(25,24,50)           109.8214         estimate D2E/DX2                !
 ! A59   A(49,24,50)           107.259          estimate D2E/DX2                !
 ! A60   A(24,25,26)           119.0507         estimate D2E/DX2                !
 ! A61   A(24,25,27)           118.6627         estimate D2E/DX2                !
 ! A62   A(26,25,27)           122.2865         estimate D2E/DX2                !
 ! A63   A(25,27,28)           128.2138         estimate D2E/DX2                !
 ! A64   A(25,27,55)           116.316          estimate D2E/DX2                !
 ! A65   A(28,27,55)           115.367          estimate D2E/DX2                !
 ! A66   A(27,28,29)           115.6687         estimate D2E/DX2                !
 ! A67   A(27,28,31)           112.379          estimate D2E/DX2                !
 ! A68   A(27,28,54)           108.8618         estimate D2E/DX2                !
 ! A69   A(29,28,31)           110.6641         estimate D2E/DX2                !
 ! A70   A(29,28,54)           103.4286         estimate D2E/DX2                !
 ! A71   A(31,28,54)           104.8638         estimate D2E/DX2                !
 ! A72   A(28,29,30)           118.417          estimate D2E/DX2                !
 ! A73   A(28,29,33)           117.3777         estimate D2E/DX2                !
 ! A74   A(30,29,33)           124.1546         estimate D2E/DX2                !
 ! A75   A(28,31,32)           123.4837         estimate D2E/DX2                !
 ! A76   A(28,31,52)           105.817          estimate D2E/DX2                !
 ! A77   A(28,31,53)           107.345          estimate D2E/DX2                !
 ! A78   A(32,31,52)           100.9695         estimate D2E/DX2                !
 ! A79   A(32,31,53)           110.3226         estimate D2E/DX2                !
 ! A80   A(52,31,53)           107.7616         estimate D2E/DX2                !
 ! A81   A(1,32,31)            123.5749         estimate D2E/DX2                !
 ! A82   A(29,33,34)           120.4473         estimate D2E/DX2                !
 ! A83   A(29,33,59)           120.0061         estimate D2E/DX2                !
 ! A84   A(34,33,59)           117.2835         estimate D2E/DX2                !
 ! A85   A(33,34,35)           113.1738         estimate D2E/DX2                !
 ! A86   A(33,34,36)           108.497          estimate D2E/DX2                !
 ! A87   A(33,34,58)           105.4244         estimate D2E/DX2                !
 ! A88   A(35,34,36)           108.9821         estimate D2E/DX2                !
 ! A89   A(35,34,58)           109.3107         estimate D2E/DX2                !
 ! A90   A(36,34,58)           111.4497         estimate D2E/DX2                !
 ! A91   A(34,35,56)           108.5824         estimate D2E/DX2                !
 ! A92   A(34,35,57)           110.3459         estimate D2E/DX2                !
 ! A93   A(34,35,64)           110.781          estimate D2E/DX2                !
 ! A94   A(56,35,57)           106.9878         estimate D2E/DX2                !
 ! A95   A(56,35,64)           111.8336         estimate D2E/DX2                !
 ! A96   A(57,35,64)           108.2443         estimate D2E/DX2                !
 ! A97   A(34,36,37)           120.8407         estimate D2E/DX2                !
 ! A98   A(34,36,38)           117.5402         estimate D2E/DX2                !
 ! A99   A(37,36,38)           121.619          estimate D2E/DX2                !
 ! A100  A(36,38,39)           127.9325         estimate D2E/DX2                !
 ! A101  A(36,38,62)           115.7072         estimate D2E/DX2                !
 ! A102  A(39,38,62)           114.8129         estimate D2E/DX2                !
 ! A103  A(38,39,40)           108.3139         estimate D2E/DX2                !
 ! A104  A(38,39,60)           112.7446         estimate D2E/DX2                !
 ! A105  A(38,39,61)           112.3028         estimate D2E/DX2                !
 ! A106  A(40,39,60)           107.7106         estimate D2E/DX2                !
 ! A107  A(40,39,61)           107.9815         estimate D2E/DX2                !
 ! A108  A(60,39,61)           107.5925         estimate D2E/DX2                !
 ! A109  A(39,40,41)           124.2834         estimate D2E/DX2                !
 ! A110  A(39,40,42)           111.4935         estimate D2E/DX2                !
 ! A111  A(41,40,42)           124.1998         estimate D2E/DX2                !
 ! A112  A(40,42,63)           106.4677         estimate D2E/DX2                !
 ! A113  A(1,64,35)            106.3696         estimate D2E/DX2                !
 ! A114  A(16,65,66)           119.9733         estimate D2E/DX2                !
 ! A115  A(16,65,67)           121.5614         estimate D2E/DX2                !
 ! A116  A(66,65,67)           118.4647         estimate D2E/DX2                !
 ! A117  A(65,66,68)           121.9001         estimate D2E/DX2                !
 ! A118  A(65,66,69)           118.4217         estimate D2E/DX2                !
 ! A119  A(68,66,69)           119.6718         estimate D2E/DX2                !
 ! A120  A(65,67,70)           118.6254         estimate D2E/DX2                !
 ! A121  A(65,67,75)           121.7058         estimate D2E/DX2                !
 ! A122  A(70,67,75)           119.6313         estimate D2E/DX2                !
 ! A123  A(66,68,71)           119.0327         estimate D2E/DX2                !
 ! A124  A(66,68,72)           120.3923         estimate D2E/DX2                !
 ! A125  A(71,68,72)           120.5737         estimate D2E/DX2                !
 ! A126  A(67,70,71)           121.6921         estimate D2E/DX2                !
 ! A127  A(67,70,73)           118.6294         estimate D2E/DX2                !
 ! A128  A(71,70,73)           119.6784         estimate D2E/DX2                !
 ! A129  A(68,71,70)           120.1667         estimate D2E/DX2                !
 ! A130  A(68,71,74)           119.659          estimate D2E/DX2                !
 ! A131  A(70,71,74)           120.1613         estimate D2E/DX2                !
 ! A132  A(67,75,76)           117.645          estimate D2E/DX2                !
 ! A133  A(67,75,77)           115.8679         estimate D2E/DX2                !
 ! A134  A(76,75,77)           111.6226         estimate D2E/DX2                !
 ! A135  A(1,78,2)             108.4306         estimate D2E/DX2                !
 ! A136  A(1,78,5)              99.1451         estimate D2E/DX2                !
 ! A137  A(2,78,5)             102.0748         estimate D2E/DX2                !
 ! D1    D(32,1,16,65)         -32.7613         estimate D2E/DX2                !
 ! D2    D(64,1,16,65)        -124.6971         estimate D2E/DX2                !
 ! D3    D(78,1,16,65)          67.819          estimate D2E/DX2                !
 ! D4    D(16,1,32,31)         -72.2636         estimate D2E/DX2                !
 ! D5    D(64,1,32,31)          30.8064         estimate D2E/DX2                !
 ! D6    D(78,1,32,31)        -173.7295         estimate D2E/DX2                !
 ! D7    D(16,1,64,35)          12.5702         estimate D2E/DX2                !
 ! D8    D(32,1,64,35)        -128.1742         estimate D2E/DX2                !
 ! D9    D(78,1,64,35)         163.6987         estimate D2E/DX2                !
 ! D10   D(16,1,78,2)           45.7767         estimate D2E/DX2                !
 ! D11   D(16,1,78,5)          151.857          estimate D2E/DX2                !
 ! D12   D(32,1,78,2)         -171.5499         estimate D2E/DX2                !
 ! D13   D(32,1,78,5)          -65.4696         estimate D2E/DX2                !
 ! D14   D(64,1,78,2)         -106.8442         estimate D2E/DX2                !
 ! D15   D(64,1,78,5)           -0.7638         estimate D2E/DX2                !
 ! D16   D(3,2,8,9)             57.9649         estimate D2E/DX2                !
 ! D17   D(3,2,8,10)           179.3214         estimate D2E/DX2                !
 ! D18   D(3,2,8,11)           -62.2397         estimate D2E/DX2                !
 ! D19   D(4,2,8,9)            179.5484         estimate D2E/DX2                !
 ! D20   D(4,2,8,10)           -59.0951         estimate D2E/DX2                !
 ! D21   D(4,2,8,11)            59.3439         estimate D2E/DX2                !
 ! D22   D(78,2,8,9)           -63.3829         estimate D2E/DX2                !
 ! D23   D(78,2,8,10)           57.9735         estimate D2E/DX2                !
 ! D24   D(78,2,8,11)          176.4125         estimate D2E/DX2                !
 ! D25   D(3,2,78,1)            80.1229         estimate D2E/DX2                !
 ! D26   D(3,2,78,5)           -23.9176         estimate D2E/DX2                !
 ! D27   D(4,2,78,1)           -34.2144         estimate D2E/DX2                !
 ! D28   D(4,2,78,5)          -138.2549         estimate D2E/DX2                !
 ! D29   D(8,2,78,1)          -155.3481         estimate D2E/DX2                !
 ! D30   D(8,2,78,5)           100.6114         estimate D2E/DX2                !
 ! D31   D(6,5,12,13)          -59.0797         estimate D2E/DX2                !
 ! D32   D(6,5,12,14)           59.5733         estimate D2E/DX2                !
 ! D33   D(6,5,12,15)         -177.8346         estimate D2E/DX2                !
 ! D34   D(7,5,12,13)           62.2888         estimate D2E/DX2                !
 ! D35   D(7,5,12,14)         -179.0582         estimate D2E/DX2                !
 ! D36   D(7,5,12,15)          -56.4661         estimate D2E/DX2                !
 ! D37   D(78,5,12,13)        -175.7446         estimate D2E/DX2                !
 ! D38   D(78,5,12,14)         -57.0916         estimate D2E/DX2                !
 ! D39   D(78,5,12,15)          65.5004         estimate D2E/DX2                !
 ! D40   D(6,5,78,1)            57.6261         estimate D2E/DX2                !
 ! D41   D(6,5,78,2)           168.8436         estimate D2E/DX2                !
 ! D42   D(7,5,78,1)           -56.6447         estimate D2E/DX2                !
 ! D43   D(7,5,78,2)            54.5728         estimate D2E/DX2                !
 ! D44   D(12,5,78,1)          178.8873         estimate D2E/DX2                !
 ! D45   D(12,5,78,2)          -69.8952         estimate D2E/DX2                !
 ! D46   D(1,16,65,66)        -100.632          estimate D2E/DX2                !
 ! D47   D(1,16,65,67)          79.6505         estimate D2E/DX2                !
 ! D48   D(47,17,18,19)         42.4078         estimate D2E/DX2                !
 ! D49   D(47,17,18,21)        -78.1846         estimate D2E/DX2                !
 ! D50   D(47,17,18,46)        165.1418         estimate D2E/DX2                !
 ! D51   D(48,17,18,19)        -71.0929         estimate D2E/DX2                !
 ! D52   D(48,17,18,21)        168.3148         estimate D2E/DX2                !
 ! D53   D(48,17,18,46)         51.6411         estimate D2E/DX2                !
 ! D54   D(17,18,19,20)        -42.9462         estimate D2E/DX2                !
 ! D55   D(17,18,19,23)        133.8331         estimate D2E/DX2                !
 ! D56   D(21,18,19,20)         76.0432         estimate D2E/DX2                !
 ! D57   D(21,18,19,23)       -107.1776         estimate D2E/DX2                !
 ! D58   D(46,18,19,20)       -163.6746         estimate D2E/DX2                !
 ! D59   D(46,18,19,23)         13.1047         estimate D2E/DX2                !
 ! D60   D(17,18,21,22)        177.6211         estimate D2E/DX2                !
 ! D61   D(17,18,21,43)        -57.7907         estimate D2E/DX2                !
 ! D62   D(17,18,21,44)         60.1631         estimate D2E/DX2                !
 ! D63   D(19,18,21,22)         55.9844         estimate D2E/DX2                !
 ! D64   D(19,18,21,43)       -179.4274         estimate D2E/DX2                !
 ! D65   D(19,18,21,44)        -61.4736         estimate D2E/DX2                !
 ! D66   D(46,18,21,22)        -66.058          estimate D2E/DX2                !
 ! D67   D(46,18,21,43)         58.5302         estimate D2E/DX2                !
 ! D68   D(46,18,21,44)        176.484          estimate D2E/DX2                !
 ! D69   D(18,19,23,24)         10.7879         estimate D2E/DX2                !
 ! D70   D(18,19,23,51)        178.0377         estimate D2E/DX2                !
 ! D71   D(20,19,23,24)       -172.4765         estimate D2E/DX2                !
 ! D72   D(20,19,23,51)         -5.2268         estimate D2E/DX2                !
 ! D73   D(18,21,22,45)         54.6213         estimate D2E/DX2                !
 ! D74   D(43,21,22,45)        -68.2419         estimate D2E/DX2                !
 ! D75   D(44,21,22,45)        174.0583         estimate D2E/DX2                !
 ! D76   D(19,23,24,25)         79.0607         estimate D2E/DX2                !
 ! D77   D(19,23,24,49)        -41.1157         estimate D2E/DX2                !
 ! D78   D(19,23,24,50)       -157.9358         estimate D2E/DX2                !
 ! D79   D(51,23,24,25)        -87.6364         estimate D2E/DX2                !
 ! D80   D(51,23,24,49)        152.1872         estimate D2E/DX2                !
 ! D81   D(51,23,24,50)         35.3671         estimate D2E/DX2                !
 ! D82   D(23,24,25,26)       -110.842          estimate D2E/DX2                !
 ! D83   D(23,24,25,27)         69.2977         estimate D2E/DX2                !
 ! D84   D(49,24,25,26)         12.1862         estimate D2E/DX2                !
 ! D85   D(49,24,25,27)       -167.6741         estimate D2E/DX2                !
 ! D86   D(50,24,25,26)        127.5006         estimate D2E/DX2                !
 ! D87   D(50,24,25,27)        -52.3596         estimate D2E/DX2                !
 ! D88   D(24,25,27,28)         -5.3217         estimate D2E/DX2                !
 ! D89   D(24,25,27,55)        178.5727         estimate D2E/DX2                !
 ! D90   D(26,25,27,28)        174.8228         estimate D2E/DX2                !
 ! D91   D(26,25,27,55)         -1.2828         estimate D2E/DX2                !
 ! D92   D(25,27,28,29)        -78.9878         estimate D2E/DX2                !
 ! D93   D(25,27,28,31)        152.6013         estimate D2E/DX2                !
 ! D94   D(25,27,28,54)         36.891          estimate D2E/DX2                !
 ! D95   D(55,27,28,29)         97.149          estimate D2E/DX2                !
 ! D96   D(55,27,28,31)        -31.2619         estimate D2E/DX2                !
 ! D97   D(55,27,28,54)       -146.9722         estimate D2E/DX2                !
 ! D98   D(27,28,29,30)        142.1526         estimate D2E/DX2                !
 ! D99   D(27,28,29,33)        -40.3272         estimate D2E/DX2                !
 ! D100  D(31,28,29,30)        -88.5962         estimate D2E/DX2                !
 ! D101  D(31,28,29,33)         88.9239         estimate D2E/DX2                !
 ! D102  D(54,28,29,30)         23.2375         estimate D2E/DX2                !
 ! D103  D(54,28,29,33)       -159.2423         estimate D2E/DX2                !
 ! D104  D(27,28,31,32)         34.0793         estimate D2E/DX2                !
 ! D105  D(27,28,31,52)        -81.0409         estimate D2E/DX2                !
 ! D106  D(27,28,31,53)        164.0837         estimate D2E/DX2                !
 ! D107  D(29,28,31,32)        -96.9121         estimate D2E/DX2                !
 ! D108  D(29,28,31,52)        147.9676         estimate D2E/DX2                !
 ! D109  D(29,28,31,53)         33.0922         estimate D2E/DX2                !
 ! D110  D(54,28,31,32)        152.1785         estimate D2E/DX2                !
 ! D111  D(54,28,31,52)         37.0583         estimate D2E/DX2                !
 ! D112  D(54,28,31,53)        -77.8171         estimate D2E/DX2                !
 ! D113  D(28,29,33,34)       -155.878          estimate D2E/DX2                !
 ! D114  D(28,29,33,59)          6.575          estimate D2E/DX2                !
 ! D115  D(30,29,33,34)         21.4863         estimate D2E/DX2                !
 ! D116  D(30,29,33,59)       -176.0607         estimate D2E/DX2                !
 ! D117  D(28,31,32,1)          62.7807         estimate D2E/DX2                !
 ! D118  D(52,31,32,1)        -179.7614         estimate D2E/DX2                !
 ! D119  D(53,31,32,1)         -65.9864         estimate D2E/DX2                !
 ! D120  D(29,33,34,35)        111.8531         estimate D2E/DX2                !
 ! D121  D(29,33,34,36)       -127.0628         estimate D2E/DX2                !
 ! D122  D(29,33,34,58)         -7.5701         estimate D2E/DX2                !
 ! D123  D(59,33,34,35)        -51.0636         estimate D2E/DX2                !
 ! D124  D(59,33,34,36)         70.0205         estimate D2E/DX2                !
 ! D125  D(59,33,34,58)       -170.4869         estimate D2E/DX2                !
 ! D126  D(33,34,35,56)       -161.5026         estimate D2E/DX2                !
 ! D127  D(33,34,35,57)         81.5342         estimate D2E/DX2                !
 ! D128  D(33,34,35,64)        -38.324          estimate D2E/DX2                !
 ! D129  D(36,34,35,56)         77.6878         estimate D2E/DX2                !
 ! D130  D(36,34,35,57)        -39.2754         estimate D2E/DX2                !
 ! D131  D(36,34,35,64)       -159.1336         estimate D2E/DX2                !
 ! D132  D(58,34,35,56)        -44.3379         estimate D2E/DX2                !
 ! D133  D(58,34,35,57)       -161.301          estimate D2E/DX2                !
 ! D134  D(58,34,35,64)         78.8408         estimate D2E/DX2                !
 ! D135  D(33,34,36,37)        -78.8999         estimate D2E/DX2                !
 ! D136  D(33,34,36,38)        101.0094         estimate D2E/DX2                !
 ! D137  D(35,34,36,37)         44.7346         estimate D2E/DX2                !
 ! D138  D(35,34,36,38)       -135.3561         estimate D2E/DX2                !
 ! D139  D(58,34,36,37)        165.457          estimate D2E/DX2                !
 ! D140  D(58,34,36,38)        -14.6337         estimate D2E/DX2                !
 ! D141  D(34,35,64,1)         106.7365         estimate D2E/DX2                !
 ! D142  D(56,35,64,1)        -131.9834         estimate D2E/DX2                !
 ! D143  D(57,35,64,1)         -14.3718         estimate D2E/DX2                !
 ! D144  D(34,36,38,39)         -9.3619         estimate D2E/DX2                !
 ! D145  D(34,36,38,62)       -174.3178         estimate D2E/DX2                !
 ! D146  D(37,36,38,39)        170.5467         estimate D2E/DX2                !
 ! D147  D(37,36,38,62)          5.5907         estimate D2E/DX2                !
 ! D148  D(36,38,39,40)       -162.23           estimate D2E/DX2                !
 ! D149  D(36,38,39,60)         78.6777         estimate D2E/DX2                !
 ! D150  D(36,38,39,61)        -43.0706         estimate D2E/DX2                !
 ! D151  D(62,38,39,40)          2.8389         estimate D2E/DX2                !
 ! D152  D(62,38,39,60)       -116.2533         estimate D2E/DX2                !
 ! D153  D(62,38,39,61)        121.9983         estimate D2E/DX2                !
 ! D154  D(38,39,40,41)         -3.3296         estimate D2E/DX2                !
 ! D155  D(38,39,40,42)        178.3655         estimate D2E/DX2                !
 ! D156  D(60,39,40,41)        118.8932         estimate D2E/DX2                !
 ! D157  D(60,39,40,42)        -59.4117         estimate D2E/DX2                !
 ! D158  D(61,39,40,41)       -125.18           estimate D2E/DX2                !
 ! D159  D(61,39,40,42)         56.5152         estimate D2E/DX2                !
 ! D160  D(39,40,42,63)       -179.4705         estimate D2E/DX2                !
 ! D161  D(41,40,42,63)          2.223          estimate D2E/DX2                !
 ! D162  D(16,65,66,68)        177.7064         estimate D2E/DX2                !
 ! D163  D(16,65,66,69)         -3.2163         estimate D2E/DX2                !
 ! D164  D(67,65,66,68)         -2.5674         estimate D2E/DX2                !
 ! D165  D(67,65,66,69)        176.5099         estimate D2E/DX2                !
 ! D166  D(16,65,67,70)       -176.3208         estimate D2E/DX2                !
 ! D167  D(16,65,67,75)          1.443          estimate D2E/DX2                !
 ! D168  D(66,65,67,70)          3.9575         estimate D2E/DX2                !
 ! D169  D(66,65,67,75)       -178.2786         estimate D2E/DX2                !
 ! D170  D(65,66,68,71)         -0.3903         estimate D2E/DX2                !
 ! D171  D(65,66,68,72)        179.1977         estimate D2E/DX2                !
 ! D172  D(69,66,68,71)       -179.4564         estimate D2E/DX2                !
 ! D173  D(69,66,68,72)          0.1316         estimate D2E/DX2                !
 ! D174  D(65,67,70,71)         -2.5127         estimate D2E/DX2                !
 ! D175  D(65,67,70,73)        177.5173         estimate D2E/DX2                !
 ! D176  D(75,67,70,71)        179.676          estimate D2E/DX2                !
 ! D177  D(75,67,70,73)         -0.2941         estimate D2E/DX2                !
 ! D178  D(65,67,75,76)         29.196          estimate D2E/DX2                !
 ! D179  D(65,67,75,77)        164.9439         estimate D2E/DX2                !
 ! D180  D(70,67,75,76)       -153.0622         estimate D2E/DX2                !
 ! D181  D(70,67,75,77)        -17.3142         estimate D2E/DX2                !
 ! D182  D(66,68,71,70)          1.9533         estimate D2E/DX2                !
 ! D183  D(66,68,71,74)       -179.3601         estimate D2E/DX2                !
 ! D184  D(72,68,71,70)       -177.634          estimate D2E/DX2                !
 ! D185  D(72,68,71,74)          1.0527         estimate D2E/DX2                !
 ! D186  D(67,70,71,68)         -0.471          estimate D2E/DX2                !
 ! D187  D(67,70,71,74)       -179.151          estimate D2E/DX2                !
 ! D188  D(73,70,71,68)        179.4987         estimate D2E/DX2                !
 ! D189  D(73,70,71,74)          0.8187         estimate D2E/DX2                !
 --------------------------------------------------------------------------------
 Trust Radius=3.00D-01 FncErr=1.00D-07 GrdErr=1.00D-06
 Number of steps in this run=    415 maximum allowed number of steps=    468.
 GradGradGradGradGradGradGradGradGradGradGradGradGradGradGradGradGradGrad

 Stoichiometry    C23H37AuN6O7S3Se
 Framework group  C1[X(C23H37AuN6O7S3Se)]
 Deg. of freedom   228
 Full point group                 C1      NOp   1
 Largest Abelian subgroup         C1      NOp   1
 Largest concise Abelian subgroup C1      NOp   1
                         Standard orientation:                         
 ---------------------------------------------------------------------
 Center     Atomic      Atomic             Coordinates (Angstroms)
 Number     Number       Type             X           Y           Z
 ---------------------------------------------------------------------
      1         79           0       -2.539629   -0.772137   -0.112697
      2          6           0       -5.790553    0.290428   -1.144308
      3          1           0       -6.247868   -0.697634   -1.138005
      4          1           0       -5.090821    0.331335   -1.988082
      5          6           0       -5.486597   -0.849466    1.497663
      6          1           0       -4.763917   -0.952077    2.304549
      7          1           0       -5.527049   -1.801972    0.956136
      8          6           0       -6.816938    1.418803   -1.212022
      9          1           0       -7.525975    1.389973   -0.385737
     10          1           0       -6.327248    2.395599   -1.204693
     11          1           0       -7.380841    1.333099   -2.156916
     12          6           0       -6.860164   -0.424732    2.019538
     13          1           0       -7.211063   -1.181971    2.734666
     14          1           0       -6.812256    0.536623    2.545022
     15          1           0       -7.603987   -0.354518    1.226564
     16         16           0       -2.213038    0.279956   -2.401146
     17          7           0        6.626844    2.901603    0.212410
     18          6           0        5.233731    2.642504    0.587519
     19          6           0        5.009352    1.164476    0.952573
     20          8           0        5.527495    0.293473    0.243031
     21          6           0        4.356836    3.026015   -0.617773
     22          8           0        2.971111    2.771316   -0.406435
     23          7           0        4.310119    0.807663    2.071934
     24          6           0        3.508868    1.652748    2.946563
     25          6           0        2.090607    2.003339    2.430740
     26          8           0        1.845767    3.164804    2.093651
     27          7           0        1.160448    1.020587    2.368760
     28          6           0        1.333588   -0.404407    2.632794
     29          6           0        1.973648   -1.219886    1.495955
     30          8           0        2.762347   -2.119800    1.791684
     31          6           0        0.020533   -1.080000    3.120887
     32         16           0       -1.707869   -0.566702    2.521665
     33          7           0        1.588476   -0.930192    0.225871
     34          6           0        1.708134   -1.939375   -0.838047
     35          6           0        0.331688   -2.446050   -1.359364
     36          6           0        2.492843   -1.321010   -2.012989
     37          8           0        1.942105   -0.558284   -2.808438
     38          7           0        3.801214   -1.646683   -2.132073
     39          6           0        4.633066   -2.370570   -1.182201
     40          6           0        6.091064   -2.114134   -1.531321
     41          8           0        6.462020   -1.463253   -2.490183
     42          8           0        6.916589   -2.725378   -0.671249
     43          1           0        4.542850    4.079672   -0.863815
     44          1           0        4.642403    2.416232   -1.476898
     45          1           0        2.680441    3.225084    0.419786
     46          1           0        4.982909    3.299636    1.419328
     47          1           0        6.930284    2.125702   -0.384284
     48          1           0        7.222134    2.846938    1.037587
     49          1           0        4.000124    2.607139    3.119519
     50          1           0        3.436557    1.140810    3.920439
     51          1           0        4.214072   -0.199244    2.169262
     52          1           0       -0.055192   -0.845584    4.219301
     53          1           0        0.155313   -2.183917    3.016558
     54          1           0        2.041622   -0.528393    3.466288
     55          1           0        0.229587    1.296564    2.044227
     56          1           0        0.485933   -3.402663   -1.886468
     57          1           0       -0.082647   -1.740397   -2.090376
     58          1           0        2.246854   -2.763125   -0.393340
     59          1           0        0.983828   -0.139815    0.048878
     60          1           0        4.467533   -3.457681   -1.214014
     61          1           0        4.469848   -2.041841   -0.153811
     62          1           0        4.313843   -1.155119   -2.860624
     63          1           0        7.821159   -2.507558   -0.955141
     64         34           0       -0.953527   -2.624935    0.121759
     65          6           0       -1.934820    1.925156   -1.849978
     66          6           0       -2.980432    2.876990   -1.909182
     67          6           0       -0.659285    2.340925   -1.339576
     68          6           0       -2.819172    4.172941   -1.442019
     69          1           0       -3.931881    2.576434   -2.350507
     70          6           0       -0.526668    3.649309   -0.842713
     71          6           0       -1.574994    4.551799   -0.882415
     72          1           0       -3.634571    4.887746   -1.511403
     73          1           0        0.425555    3.950530   -0.419631
     74          1           0       -1.441450    5.556861   -0.505495
     75          7           0        0.411608    1.481622   -1.284868
     76          1           0        0.457638    0.735058   -1.983561
     77          1           0        1.328982    1.918038   -1.136536
     78         16           0       -4.710876    0.407432    0.367094
 ---------------------------------------------------------------------
 Rotational constants (GHZ):      0.1009333      0.0401749      0.0368160
 General basis read from cards:  (5D, 7F)
 ======================================================================================================
                                       Pseudopotential Parameters
 ======================================================================================================
  Center     Atomic      Valence      Angular      Power
  Number     Number     Electrons     Momentum     of R      Exponent        Coefficient   SO-Coeffient
 ======================================================================================================
    1         79           19
                                      G and up 
                                                     1      622.6287956      -60.00000000    0.00000000
                                                     2      136.2843607     -555.52923120    0.00000000
                                                     2       33.1549781     -168.00197850    0.00000000
                                                     2        9.9894895      -63.03998750    0.00000000
                                                     2        3.0481312       -4.25166810    0.00000000
                                      S - G
                                                     0      194.7374304        3.00000000    0.00000000
                                                     1      351.5327447       38.60208800    0.00000000
                                                     2      122.3270402      864.83707270    0.00000000
                                                     2       32.0914617      374.99355200    0.00000000
                                                     2        5.2451812      289.79101000    0.00000000
                                                     2        4.4916223     -152.45327730    0.00000000
                                      P - G
                                                     0      420.6158801        2.00000000    0.00000000
                                                     1      109.4417815       73.88856250    0.00000000
                                                     2       34.1714280      326.67298720    0.00000000
                                                     2        5.9879750      126.58145910    0.00000000
                                      D - G
                                                     0      219.2666158        3.00000000    0.00000000
                                                     1      122.7297786       55.67931490    0.00000000
                                                     2       63.1063369      449.19873350    0.00000000
                                                     2       18.3684520      215.02690910    0.00000000
                                                     2        4.4972844       64.08409950    0.00000000
                                      F - G
                                                     0      108.5506037        4.00000000    0.00000000
                                                     1       56.4795527       51.80653350    0.00000000
                                                     2       29.2069159      231.21831130    0.00000000
                                                     2        9.5440543      119.00473860    0.00000000
                                                     2        2.8965118       15.34241880    0.00000000
    2          6
                                   No pseudopotential on this center.
    3          1
                                   No pseudopotential on this center.
    4          1
                                   No pseudopotential on this center.
    5          6
                                   No pseudopotential on this center.
    6          1
                                   No pseudopotential on this center.
    7          1
                                   No pseudopotential on this center.
    8          6
                                   No pseudopotential on this center.
    9          1
                                   No pseudopotential on this center.
   10          1
                                   No pseudopotential on this center.
   11          1
                                   No pseudopotential on this center.
   12          6
                                   No pseudopotential on this center.
   13          1
                                   No pseudopotential on this center.
   14          1
                                   No pseudopotential on this center.
   15          1
                                   No pseudopotential on this center.
   16         16
                                   No pseudopotential on this center.
   17          7
                                   No pseudopotential on this center.
   18          6
                                   No pseudopotential on this center.
   19          6
                                   No pseudopotential on this center.
   20          8
                                   No pseudopotential on this center.
   21          6
                                   No pseudopotential on this center.
   22          8
                                   No pseudopotential on this center.
   23          7
                                   No pseudopotential on this center.
   24          6
                                   No pseudopotential on this center.
   25          6
                                   No pseudopotential on this center.
   26          8
                                   No pseudopotential on this center.
   27          7
                                   No pseudopotential on this center.
   28          6
                                   No pseudopotential on this center.
   29          6
                                   No pseudopotential on this center.
   30          8
                                   No pseudopotential on this center.
   31          6
                                   No pseudopotential on this center.
   32         16
                                   No pseudopotential on this center.
   33          7
                                   No pseudopotential on this center.
   34          6
                                   No pseudopotential on this center.
   35          6
                                   No pseudopotential on this center.
   36          6
                                   No pseudopotential on this center.
   37          8
                                   No pseudopotential on this center.
   38          7
                                   No pseudopotential on this center.
   39          6
                                   No pseudopotential on this center.
   40          6
                                   No pseudopotential on this center.
   41          8
                                   No pseudopotential on this center.
   42          8
                                   No pseudopotential on this center.
   43          1
                                   No pseudopotential on this center.
   44          1
                                   No pseudopotential on this center.
   45          1
                                   No pseudopotential on this center.
   46          1
                                   No pseudopotential on this center.
   47          1
                                   No pseudopotential on this center.
   48          1
                                   No pseudopotential on this center.
   49          1
                                   No pseudopotential on this center.
   50          1
                                   No pseudopotential on this center.
   51          1
                                   No pseudopotential on this center.
   52          1
                                   No pseudopotential on this center.
   53          1
                                   No pseudopotential on this center.
   54          1
                                   No pseudopotential on this center.
   55          1
                                   No pseudopotential on this center.
   56          1
                                   No pseudopotential on this center.
   57          1
                                   No pseudopotential on this center.
   58          1
                                   No pseudopotential on this center.
   59          1
                                   No pseudopotential on this center.
   60          1
                                   No pseudopotential on this center.
   61          1
                                   No pseudopotential on this center.
   62          1
                                   No pseudopotential on this center.
   63          1
                                   No pseudopotential on this center.
   64         34
                                   No pseudopotential on this center.
   65          6
                                   No pseudopotential on this center.
   66          6
                                   No pseudopotential on this center.
   67          6
                                   No pseudopotential on this center.
   68          6
                                   No pseudopotential on this center.
   69          1
                                   No pseudopotential on this center.
   70          6
                                   No pseudopotential on this center.
   71          6
                                   No pseudopotential on this center.
   72          1
                                   No pseudopotential on this center.
   73          1
                                   No pseudopotential on this center.
   74          1
                                   No pseudopotential on this center.
   75          7
                                   No pseudopotential on this center.
   76          1
                                   No pseudopotential on this center.
   77          1
                                   No pseudopotential on this center.
   78         16
                                   No pseudopotential on this center.
 ======================================================================================================
 There are   749 symmetry adapted cartesian basis functions of A   symmetry.
 There are   702 symmetry adapted basis functions of A   symmetry.
   702 basis functions,  1443 primitive gaussians,   749 cartesian basis functions
   187 alpha electrons      187 beta electrons
       nuclear repulsion energy      7498.0105885571 Hartrees.
 NAtoms=   78 NActive=   78 NUniq=   78 SFac= 1.00D+00 NAtFMM=   60 NAOKFM=T Big=T
 Integral buffers will be    131072 words long.
 Raffenetti 2 integral format.
 Two-electron integral symmetry is turned on.
 One-electron integrals computed using PRISM.
   1 Symmetry operations used in ECPInt.
 ECPInt:  NShTT=   33670 NPrTT=  206035 LenC2=   25221 LenP2D=   78355.
 LDataN:  DoStor=T MaxTD1= 7 Len=  274
 NBasis=   702 RedAO= T EigKep=  4.73D-04  NBF=   702
 NBsUse=   702 1.00D-06 EigRej= -1.00D+00 NBFU=   702
 Defaulting to unpruned grid for atomic number  79.
 ExpMin= 2.79D-02 ExpMax= 5.61D+05 ExpMxC= 5.42D+03 IAcc=3 IRadAn=         5 AccDes= 0.00D+00
 Harris functional with IExCor=  402 and IRadAn=       5 diagonalized for initial guess.
 HarFok:  IExCor=  402 AccDes= 0.00D+00 IRadAn=         5 IDoV= 1 UseB2=F ITyADJ=14
 ICtDFT=  3500011 ScaDFX=  1.000000  1.000000  1.000000  1.000000
 Defaulting to unpruned grid for atomic number  79.
 Defaulting to unpruned grid for atomic number  79.
 Defaulting to unpruned grid for atomic number  79.
 Defaulting to unpruned grid for atomic number  79.
 Defaulting to unpruned grid for atomic number  79.
 Defaulting to unpruned grid for atomic number  79.
 Defaulting to unpruned grid for atomic number  79.
 Defaulting to unpruned grid for atomic number  79.
 Defaulting to unpruned grid for atomic number  79.
 Defaulting to unpruned grid for atomic number  79.
 Defaulting to unpruned grid for atomic number  79.
 Defaulting to unpruned grid for atomic number  79.
 Defaulting to unpruned grid for atomic number  79.
 Defaulting to unpruned grid for atomic number  79.
 Defaulting to unpruned grid for atomic number  79.
 Defaulting to unpruned grid for atomic number  79.
 Defaulting to unpruned grid for atomic number  79.
 Defaulting to unpruned grid for atomic number  79.
 FoFCou: FMM=F IPFlag=           0 FMFlag=      100000 FMFlg1=        2001
         NFxFlg=           0 DoJE=T BraDBF=F KetDBF=T FulRan=T
         wScrn=  0.000000 ICntrl=     500 IOpCl=  0 I1Cent=   200000004 NGrid=           0
         NMat0=    1 NMatS0=      1 NMatT0=    0 NMatD0=    1 NMtDS0=    0 NMtDT0=    0
 Petite list used in FoFCou.
 Requested convergence on RMS density matrix=1.00D-08 within 128 cycles.
 Requested convergence on MAX density matrix=1.00D-06.
 Requested convergence on             energy=1.00D-06.
 No special actions if energy rises.
 Defaulting to unpruned grid for atomic number  79.
 Defaulting to unpruned grid for atomic number  79.
 Defaulting to unpruned grid for atomic number  79.
 Defaulting to unpruned grid for atomic number  79.
 Defaulting to unpruned grid for atomic number  79.
 Defaulting to unpruned grid for atomic number  79.
 Defaulting to unpruned grid for atomic number  79.
 Defaulting to unpruned grid for atomic number  79.
 Defaulting to unpruned grid for atomic number  79.
 Defaulting to unpruned grid for atomic number  79.
 Defaulting to unpruned grid for atomic number  79.
 Defaulting to unpruned grid for atomic number  79.
 Defaulting to unpruned grid for atomic number  79.
 Defaulting to unpruned grid for atomic number  79.
 Defaulting to unpruned grid for atomic number  79.
 Defaulting to unpruned grid for atomic number  79.
 Defaulting to unpruned grid for atomic number  79.
 Defaulting to unpruned grid for atomic number  79.
 EnCoef did     7 forward-backward iterations
 EnCoef did   100 forward-backward iterations
 EnCoef did     3 forward-backward iterations
 Restarting incremental Fock formation.
 SCF Done:  E(RB3LYP) =  -5482.81953590     A.U. after   22 cycles
            NFock= 22  Conv=0.23D-08     -V/T= 2.0182

 **********************************************************************

            Population analysis using the SCF density.

 **********************************************************************

 Orbital symmetries:
       Occupied  (A) (A) (A) (A) (A) (A) (A) (A) (A) (A) (A) (A)
                 (A) (A) (A) (A) (A) (A) (A) (A) (A) (A) (A) (A)
                 (A) (A) (A) (A) (A) (A) (A) (A) (A) (A) (A) (A)
                 (A) (A) (A) (A) (A) (A) (A) (A) (A) (A) (A) (A)
                 (A) (A) (A) (A) (A) (A) (A) (A) (A) (A) (A) (A)
                 (A) (A) (A) (A) (A) (A) (A) (A) (A) (A) (A) (A)
                 (A) (A) (A) (A) (A) (A) (A) (A) (A) (A) (A) (A)
                 (A) (A) (A) (A) (A) (A) (A) (A) (A) (A) (A) (A)
                 (A) (A) (A) (A) (A) (A) (A) (A) (A) (A) (A) (A)
                 (A) (A) (A) (A) (A) (A) (A) (A) (A) (A) (A) (A)
                 (A) (A) (A) (A) (A) (A) (A) (A) (A) (A) (A) (A)
                 (A) (A) (A) (A) (A) (A) (A) (A) (A) (A) (A) (A)
                 (A) (A) (A) (A) (A) (A) (A) (A) (A) (A) (A) (A)
                 (A) (A) (A) (A) (A) (A) (A) (A) (A) (A) (A) (A)
                 (A) (A) (A) (A) (A) (A) (A) (A) (A) (A) (A) (A)
                 (A) (A) (A) (A) (A) (A) (A)
       Virtual   (A) (A) (A) (A) (A) (A) (A) (A) (A) (A) (A) (A)
                 (A) (A) (A) (A) (A) (A) (A) (A) (A) (A) (A) (A)
                 (A) (A) (A) (A) (A) (A) (A) (A) (A) (A) (A) (A)
                 (A) (A) (A) (A) (A) (A) (A) (A) (A) (A) (A) (A)
                 (A) (A) (A) (A) (A) (A) (A) (A) (A) (A) (A) (A)
                 (A) (A) (A) (A) (A) (A) (A) (A) (A) (A) (A) (A)
                 (A) (A) (A) (A) (A) (A) (A) (A) (A) (A) (A) (A)
                 (A) (A) (A) (A) (A) (A) (A) (A) (A) (A) (A) (A)
                 (A) (A) (A) (A) (A) (A) (A) (A) (A) (A) (A) (A)
                 (A) (A) (A) (A) (A) (A) (A) (A) (A) (A) (A) (A)
                 (A) (A) (A) (A) (A) (A) (A) (A) (A) (A) (A) (A)
                 (A) (A) (A) (A) (A) (A) (A) (A) (A) (A) (A) (A)
                 (A) (A) (A) (A) (A) (A) (A) (A) (A) (A) (A) (A)
                 (A) (A) (A) (A) (A) (A) (A) (A) (A) (A) (A) (A)
                 (A) (A) (A) (A) (A) (A) (A) (A) (A) (A) (A) (A)
                 (A) (A) (A) (A) (A) (A) (A) (A) (A) (A) (A) (A)
                 (A) (A) (A) (A) (A) (A) (A) (A) (A) (A) (A) (A)
                 (A) (A) (A) (A) (A) (A) (A) (A) (A) (A) (A) (A)
                 (A) (A) (A) (A) (A) (A) (A) (A) (A) (A) (A) (A)
                 (A) (A) (A) (A) (A) (A) (A) (A) (A) (A) (A) (A)
                 (A) (A) (A) (A) (A) (A) (A) (A) (A) (A) (A) (A)
                 (A) (A) (A) (A) (A) (A) (A) (A) (A) (A) (A) (A)
                 (A) (A) (A) (A) (A) (A) (A) (A) (A) (A) (A) (A)
                 (A) (A) (A) (A) (A) (A) (A) (A) (A) (A) (A) (A)
                 (A) (A) (A) (A) (A) (A) (A) (A) (A) (A) (A) (A)
                 (A) (A) (A) (A) (A) (A) (A) (A) (A) (A) (A) (A)
                 (A) (A) (A) (A) (A) (A) (A) (A) (A) (A) (A) (A)
                 (A) (A) (A) (A) (A) (A) (A) (A) (A) (A) (A) (A)
                 (A) (A) (A) (A) (A) (A) (A) (A) (A) (A) (A) (A)
                 (A) (A) (A) (A) (A) (A) (A) (A) (A) (A) (A) (A)
                 (A) (A) (A) (A) (A) (A) (A) (A) (A) (A) (A) (A)
                 (A) (A) (A) (A) (A) (A) (A) (A) (A) (A) (A) (A)
                 (A) (A) (A) (A) (A) (A) (A) (A) (A) (A) (A) (A)
                 (A) (A) (A) (A) (A) (A) (A) (A) (A) (A) (A) (A)
                 (A) (A) (A) (A) (A) (A) (A) (A) (A) (A) (A) (A)
                 (A) (A) (A) (A) (A) (A) (A) (A) (A) (A) (A) (A)
                 (A) (A) (A) (A) (A) (A) (A) (A) (A) (A) (A) (A)
                 (A) (A) (A) (A) (A) (A) (A) (A) (A) (A) (A) (A)
                 (A) (A) (A) (A) (A) (A) (A) (A) (A) (A) (A) (A)
                 (A) (A) (A) (A) (A) (A) (A) (A) (A) (A) (A) (A)
                 (A) (A) (A) (A) (A) (A) (A) (A) (A) (A) (A) (A)
                 (A) (A) (A) (A) (A) (A) (A) (A) (A) (A) (A) (A)
                 (A) (A) (A) (A) (A) (A) (A) (A) (A) (A) (A)
 The electronic state is 1-A.
 Alpha  occ. eigenvalues -- -453.55396 -88.91249 -88.84555 -88.84519 -57.27314
 Alpha  occ. eigenvalues --  -52.04876 -52.04767 -52.04526 -19.19900 -19.14328
 Alpha  occ. eigenvalues --  -19.14039 -19.13188 -19.12359 -19.11786 -19.11102
 Alpha  occ. eigenvalues --  -14.37403 -14.36974 -14.35669 -14.35317 -14.32441
 Alpha  occ. eigenvalues --  -14.31264 -10.32680 -10.30724 -10.29304 -10.28986
 Alpha  occ. eigenvalues --  -10.28514 -10.25130 -10.24735 -10.23762 -10.23436
 Alpha  occ. eigenvalues --  -10.23218 -10.23037 -10.22973 -10.22666 -10.22382
 Alpha  occ. eigenvalues --  -10.22103 -10.20892 -10.20302 -10.20087 -10.19783
 Alpha  occ. eigenvalues --  -10.18690 -10.18603 -10.17784 -10.17440  -7.98601
 Alpha  occ. eigenvalues --   -7.91832  -7.91696  -7.62350  -5.94911  -5.94639
 Alpha  occ. eigenvalues --   -5.94195  -5.88190  -5.88113  -5.88002  -5.87774
 Alpha  occ. eigenvalues --   -5.87266  -5.87180  -5.75355  -5.75014  -5.74129
 Alpha  occ. eigenvalues --   -4.19681  -2.33873  -2.33019  -2.31692  -2.11509
 Alpha  occ. eigenvalues --   -2.11494  -2.10752  -2.10477  -2.10315  -1.11518
 Alpha  occ. eigenvalues --   -1.05464  -1.04352  -1.03740  -1.03255  -1.02231
 Alpha  occ. eigenvalues --   -1.01392  -0.94686  -0.93211  -0.92582  -0.92113
 Alpha  occ. eigenvalues --   -0.91426  -0.88964  -0.84614  -0.83450  -0.79353
 Alpha  occ. eigenvalues --   -0.78838  -0.77377  -0.76697  -0.74930  -0.74695
 Alpha  occ. eigenvalues --   -0.72855  -0.72650  -0.72563  -0.70336  -0.68992
 Alpha  occ. eigenvalues --   -0.67169  -0.65161  -0.64993  -0.62623  -0.61827
 Alpha  occ. eigenvalues --   -0.61008  -0.60919  -0.60385  -0.60223  -0.59074
 Alpha  occ. eigenvalues --   -0.58128  -0.58024  -0.57560  -0.54176  -0.52901
 Alpha  occ. eigenvalues --   -0.51533  -0.51396  -0.51108  -0.50401  -0.50306
 Alpha  occ. eigenvalues --   -0.49835  -0.49811  -0.49743  -0.48946  -0.48478
 Alpha  occ. eigenvalues --   -0.48125  -0.47829  -0.46632  -0.46342  -0.46170
 Alpha  occ. eigenvalues --   -0.45769  -0.45202  -0.44799  -0.44699  -0.44558
 Alpha  occ. eigenvalues --   -0.43799  -0.43378  -0.42914  -0.42623  -0.42272
 Alpha  occ. eigenvalues --   -0.41930  -0.41696  -0.41565  -0.41487  -0.41422
 Alpha  occ. eigenvalues --   -0.41278  -0.40954  -0.40375  -0.40185  -0.40101
 Alpha  occ. eigenvalues --   -0.39572  -0.39380  -0.38988  -0.38880  -0.38458
 Alpha  occ. eigenvalues --   -0.38119  -0.37756  -0.37691  -0.37189  -0.36948
 Alpha  occ. eigenvalues --   -0.36588  -0.36308  -0.35731  -0.35544  -0.35097
 Alpha  occ. eigenvalues --   -0.34563  -0.33235  -0.32766  -0.32650  -0.32402
 Alpha  occ. eigenvalues --   -0.31825  -0.30892  -0.30676  -0.30055  -0.29471
 Alpha  occ. eigenvalues --   -0.28772  -0.28630  -0.27660  -0.27394  -0.26705
 Alpha  occ. eigenvalues --   -0.26465  -0.25857  -0.25453  -0.25224  -0.25061
 Alpha  occ. eigenvalues --   -0.24374  -0.24109  -0.22604  -0.22335  -0.21909
 Alpha  occ. eigenvalues --   -0.20975  -0.18859
 Alpha virt. eigenvalues --   -0.13183  -0.02448  -0.00989  -0.00809  -0.00368
 Alpha virt. eigenvalues --    0.00510   0.00764   0.01144   0.01319   0.01406
 Alpha virt. eigenvalues --    0.02140   0.03519   0.04129   0.04417   0.04958
 Alpha virt. eigenvalues --    0.06019   0.07032   0.07150   0.07605   0.08239
 Alpha virt. eigenvalues --    0.08800   0.09444   0.09779   0.10315   0.10763
 Alpha virt. eigenvalues --    0.11443   0.11723   0.11934   0.12128   0.12636
 Alpha virt. eigenvalues --    0.12857   0.13196   0.13543   0.13933   0.14487
 Alpha virt. eigenvalues --    0.14754   0.15162   0.15365   0.15610   0.15795
 Alpha virt. eigenvalues --    0.16293   0.16743   0.16907   0.17072   0.17389
 Alpha virt. eigenvalues --    0.17656   0.17777   0.18223   0.18315   0.18574
 Alpha virt. eigenvalues --    0.19186   0.19450   0.19477   0.19687   0.20098
 Alpha virt. eigenvalues --    0.20684   0.20842   0.21115   0.21288   0.21528
 Alpha virt. eigenvalues --    0.21868   0.22274   0.22531   0.22835   0.23757
 Alpha virt. eigenvalues --    0.24252   0.24510   0.24807   0.25122   0.25612
 Alpha virt. eigenvalues --    0.26301   0.26858   0.27217   0.27712   0.28356
 Alpha virt. eigenvalues --    0.30212   0.30530   0.31610   0.31890   0.32511
 Alpha virt. eigenvalues --    0.32869   0.33556   0.33989   0.34574   0.34709
 Alpha virt. eigenvalues --    0.35662   0.35810   0.36548   0.36742   0.37361
 Alpha virt. eigenvalues --    0.37989   0.38339   0.39088   0.40074   0.40558
 Alpha virt. eigenvalues --    0.41848   0.42165   0.42995   0.43132   0.43963
 Alpha virt. eigenvalues --    0.44208   0.44629   0.45734   0.46539   0.46665
 Alpha virt. eigenvalues --    0.47346   0.48626   0.48942   0.49145   0.50011
 Alpha virt. eigenvalues --    0.50559   0.51206   0.51920   0.52473   0.52666
 Alpha virt. eigenvalues --    0.53215   0.53486   0.53733   0.54324   0.54386
 Alpha virt. eigenvalues --    0.54641   0.55485   0.55535   0.56219   0.56621
 Alpha virt. eigenvalues --    0.57037   0.57244   0.57768   0.57983   0.58058
 Alpha virt. eigenvalues --    0.58861   0.59170   0.59475   0.59656   0.59882
 Alpha virt. eigenvalues --    0.60195   0.60309   0.61145   0.61892   0.62090
 Alpha virt. eigenvalues --    0.62275   0.62778   0.63135   0.63625   0.64087
 Alpha virt. eigenvalues --    0.64272   0.64338   0.65039   0.65411   0.65830
 Alpha virt. eigenvalues --    0.65997   0.66380   0.66577   0.66806   0.67464
 Alpha virt. eigenvalues --    0.68125   0.68308   0.68478   0.68940   0.69212
 Alpha virt. eigenvalues --    0.69916   0.70233   0.70897   0.71807   0.72234
 Alpha virt. eigenvalues --    0.72486   0.72607   0.72914   0.74109   0.74250
 Alpha virt. eigenvalues --    0.75244   0.75428   0.76204   0.76462   0.76959
 Alpha virt. eigenvalues --    0.77373   0.77895   0.78822   0.79499   0.80103
 Alpha virt. eigenvalues --    0.80474   0.81164   0.81293   0.82154   0.82236
 Alpha virt. eigenvalues --    0.82547   0.83127   0.83381   0.83784   0.84059
 Alpha virt. eigenvalues --    0.84204   0.84660   0.84891   0.85394   0.85683
 Alpha virt. eigenvalues --    0.86026   0.86313   0.86353   0.86930   0.87105
 Alpha virt. eigenvalues --    0.87393   0.87715   0.88035   0.88171   0.88414
 Alpha virt. eigenvalues --    0.88648   0.89003   0.89671   0.89928   0.90084
 Alpha virt. eigenvalues --    0.90777   0.91132   0.91244   0.91645   0.91946
 Alpha virt. eigenvalues --    0.92197   0.92625   0.92788   0.92944   0.93415
 Alpha virt. eigenvalues --    0.93589   0.93940   0.94064   0.94656   0.94823
 Alpha virt. eigenvalues --    0.95026   0.95461   0.95539   0.95958   0.96517
 Alpha virt. eigenvalues --    0.96791   0.97162   0.97453   0.97944   0.98216
 Alpha virt. eigenvalues --    0.98540   0.99254   0.99832   1.00235   1.00570
 Alpha virt. eigenvalues --    1.00942   1.01559   1.02583   1.03022   1.03107
 Alpha virt. eigenvalues --    1.03450   1.04140   1.04372   1.04679   1.05321
 Alpha virt. eigenvalues --    1.05571   1.05869   1.06371   1.06828   1.07461
 Alpha virt. eigenvalues --    1.08869   1.09378   1.10267   1.10579   1.10948
 Alpha virt. eigenvalues --    1.11207   1.12648   1.13429   1.13933   1.14374
 Alpha virt. eigenvalues --    1.15395   1.15529   1.16042   1.16505   1.17171
 Alpha virt. eigenvalues --    1.17943   1.18427   1.19050   1.20406   1.21121
 Alpha virt. eigenvalues --    1.22969   1.23442   1.25126   1.26464   1.27778
 Alpha virt. eigenvalues --    1.28423   1.28710   1.29295   1.30282   1.31115
 Alpha virt. eigenvalues --    1.32247   1.33145   1.34088   1.34989   1.35380
 Alpha virt. eigenvalues --    1.35951   1.36534   1.37963   1.38324   1.39620
 Alpha virt. eigenvalues --    1.40626   1.41645   1.42477   1.43286   1.43585
 Alpha virt. eigenvalues --    1.44990   1.45879   1.46201   1.46628   1.46749
 Alpha virt. eigenvalues --    1.47564   1.49131   1.49585   1.50113   1.50283
 Alpha virt. eigenvalues --    1.50662   1.51655   1.53248   1.53973   1.54632
 Alpha virt. eigenvalues --    1.55529   1.55815   1.56323   1.57028   1.58130
 Alpha virt. eigenvalues --    1.58823   1.59760   1.60397   1.61312   1.62101
 Alpha virt. eigenvalues --    1.62960   1.63129   1.64950   1.65934   1.67300
 Alpha virt. eigenvalues --    1.68331   1.68605   1.69567   1.70283   1.71400
 Alpha virt. eigenvalues --    1.72306   1.73257   1.73972   1.75711   1.76147
 Alpha virt. eigenvalues --    1.76995   1.77140   1.78043   1.78744   1.79353
 Alpha virt. eigenvalues --    1.79987   1.81235   1.82018   1.82562   1.82723
 Alpha virt. eigenvalues --    1.83743   1.84010   1.84339   1.85099   1.85404
 Alpha virt. eigenvalues --    1.86001   1.87107   1.87231   1.87730   1.88213
 Alpha virt. eigenvalues --    1.89232   1.89521   1.90384   1.90766   1.91265
 Alpha virt. eigenvalues --    1.91475   1.92594   1.92883   1.93390   1.93885
 Alpha virt. eigenvalues --    1.94064   1.94677   1.94894   1.95004   1.95397
 Alpha virt. eigenvalues --    1.96052   1.96350   1.96439   1.97187   1.97441
 Alpha virt. eigenvalues --    1.97661   1.97900   1.98365   1.98471   1.98516
 Alpha virt. eigenvalues --    1.98635   1.98975   1.99714   2.00420   2.00547
 Alpha virt. eigenvalues --    2.00746   2.01076   2.01572   2.02232   2.02667
 Alpha virt. eigenvalues --    2.03804   2.04240   2.05949   2.06267   2.06336
 Alpha virt. eigenvalues --    2.06974   2.07873   2.08232   2.09009   2.09508
 Alpha virt. eigenvalues --    2.10157   2.10177   2.11390   2.11597   2.11914
 Alpha virt. eigenvalues --    2.12531   2.12956   2.13997   2.14540   2.15570
 Alpha virt. eigenvalues --    2.16414   2.16526   2.17279   2.18759   2.18991
 Alpha virt. eigenvalues --    2.20195   2.20573   2.21260   2.22052   2.22761
 Alpha virt. eigenvalues --    2.23129   2.23164   2.24295   2.24922   2.25823
 Alpha virt. eigenvalues --    2.26233   2.26316   2.26707   2.27385   2.28166
 Alpha virt. eigenvalues --    2.28439   2.28770   2.29829   2.30785   2.31461
 Alpha virt. eigenvalues --    2.31800   2.32035   2.32592   2.33951   2.34187
 Alpha virt. eigenvalues --    2.35236   2.37096   2.38011   2.40090   2.40842
 Alpha virt. eigenvalues --    2.42448   2.43304   2.43651   2.44823   2.46342
 Alpha virt. eigenvalues --    2.46891   2.48967   2.49619   2.51040   2.51898
 Alpha virt. eigenvalues --    2.53672   2.54679   2.55446   2.56443   2.58070
 Alpha virt. eigenvalues --    2.58482   2.59085   2.59807   2.59934   2.60867
 Alpha virt. eigenvalues --    2.61388   2.62827   2.63538   2.64270   2.64474
 Alpha virt. eigenvalues --    2.65047   2.65314   2.65510   2.66083   2.67932
 Alpha virt. eigenvalues --    2.69790   2.70594   2.71254   2.72232   2.73804
 Alpha virt. eigenvalues --    2.74719   2.76655   2.77023   2.82066   2.83311
 Alpha virt. eigenvalues --    2.83905   2.85034   2.88343   2.90030   2.92083
 Alpha virt. eigenvalues --    2.94216   2.95207   2.96270   2.98602   2.99278
 Alpha virt. eigenvalues --    3.02492   3.07069   3.07114   3.08082   3.09965
 Alpha virt. eigenvalues --    3.12777   3.14474   3.16361   3.18549   3.38046
 Alpha virt. eigenvalues --    8.00765  15.59905  15.67350  15.71932  43.14672
          Condensed to atoms (all electrons):
 Mulliken charges:
               1
     1  Au  -0.179985
     2  C   -0.438305
     3  H    0.195007
     4  H    0.241642
     5  C   -0.430014
     6  H    0.237774
     7  H    0.210982
     8  C   -0.448897
     9  H    0.164535
    10  H    0.178577
    11  H    0.164828
    12  C   -0.454455
    13  H    0.170734
    14  H    0.177148
    15  H    0.162719
    16  S   -0.083105
    17  N   -0.704578
    18  C   -0.111854
    19  C    0.556798
    20  O   -0.500560
    21  C   -0.001240
    22  O   -0.679335
    23  N   -0.581560
    24  C   -0.249275
    25  C    0.556415
    26  O   -0.496675
    27  N   -0.565393
    28  C   -0.040588
    29  C    0.557943
    30  O   -0.500548
    31  C   -0.430010
    32  S   -0.101332
    33  N   -0.586874
    34  C   -0.060811
    35  C   -0.392882
    36  C    0.554421
    37  O   -0.485863
    38  N   -0.579007
    39  C   -0.204749
    40  C    0.563898
    41  O   -0.433990
    42  O   -0.563937
    43  H    0.149559
    44  H    0.163762
    45  H    0.440715
    46  H    0.137658
    47  H    0.318585
    48  H    0.300954
    49  H    0.192710
    50  H    0.177881
    51  H    0.355681
    52  H    0.181213
    53  H    0.208847
    54  H    0.162149
    55  H    0.375120
    56  H    0.180165
    57  H    0.237395
    58  H    0.187018
    59  H    0.396674
    60  H    0.180015
    61  H    0.233672
    62  H    0.358502
    63  H    0.421847
    64  Se  -0.106715
    65  C   -0.127289
    66  C   -0.146231
    67  C    0.323808
    68  C   -0.123975
    69  H    0.133196
    70  C   -0.165071
    71  C   -0.133789
    72  H    0.123447
    73  H    0.144169
    74  H    0.136250
    75  N   -0.866875
    76  H    0.392546
[...]
 414,0.00010921,0.00057253,0.00009430,-0.00019581,-0.00054029,-0.006839
 92,0.01690834,0.01245724,0.00025697,-0.00000058,0.00015060,-0.00009561
 ,0.00002380,-0.00000518,-0.00323198,0.00108692,-0.00144717,-0.00006124
 ,0.00127824,-0.00006463,-0.00004300,-0.00000486,-0.00001733,-0.0000038
 0,-0.00002171,0.00007354,-0.00026639,0.00024544,-0.00006306,0.08747994
 ,-0.18847492,-0.23017880,-0.08277574,0.16908516,0.23540234,-0.00016621
 ,-0.00035316,0.00045902,-0.00001296,-0.00002194,-0.00008423,0.00002473
 ,0.00001150,0.00000213,-0.00005078,-0.00001106,-0.00000531,-0.00000111
 ,0.00002845,0.00008629,0.00000389,-0.00000327,-0.00000136,0.00001716,-
 0.00000410,-0.00003368,0.00000319,0.00000843,0.00001281,0.00000939,-0.
 00000378,-0.00001827,-0.00002583,0.00000666,0.00000799,0.00001882,-0.0
 0000338,0.00000606,0.00000300,0.00002097,-0.00002430,0.00001688,-0.000
 00632,-0.00002452,-0.00000165,0.00000457,0.00003188,-0.00000527,-0.000
 00451,0.00000822,0.00040043,0.00026190,0.00021128,0.00052120,-0.000020
 97,0.00035912,0.00009862,0.00032457,-0.00045070,0.00005299,0.00115058,
 -0.00066346,0.00007601,-0.00047813,0.00032064,-0.00447990,-0.00098814,
 0.00109658,-0.00302458,-0.00131292,0.00034151,-0.00020720,-0.00056366,
 0.00040316,0.00007088,-0.00002508,-0.00023369,0.00074201,0.00183863,0.
 00015937,-0.00052766,-0.00138863,0.00063782,-0.00074753,-0.00072445,-0
 .00047048,-0.00008397,0.00021752,-0.00005555,0.00028231,-0.00010751,0.
 00032010,-0.00033579,0.00005977,-0.00018505,0.00027391,0.00003881,-0.0
 0007624,-0.00007814,0.00000640,-0.00040382,-0.00055163,-0.00015600,-0.
 00026364,0.00013756,0.00017815,0.00012269,0.00016638,-0.00000298,0.000
 18140,0.00032873,0.00045632,-0.00008111,-0.00099276,-0.00064977,-0.000
 30555,-0.00024869,-0.00012956,-0.00008550,-0.00007700,0.00004257,0.000
 04922,0.00004953,0.00022277,-0.00001433,-0.00004141,-0.00016356,-0.000
 00237,0.00001233,-0.00008298,0.00000324,0.00087457,0.00047215,0.000171
 97,0.00004700,-0.00009067,-0.00009541,0.00351098,0.00177694,-0.0005187
 5,0.00001549,0.00001999,0.00002866,-0.00006264,0.00002756,-0.00000162,
 0.00016027,-0.00012018,-0.00001827,-0.00004526,0.00000972,-0.00006381,
 -0.00001636,-0.00004294,0.00005307,0.00001323,0.00013696,0.00004419,-0
 .00011565,0.00001018,0.00000485,-0.00006133,-0.00002490,0.00003763,-0.
 00002887,-0.00001259,-0.00002846,0.00017553,-0.00008491,0.00033158,-0.
 00007282,0.00004121,-0.00004453,0.00005267,-0.00017566,-0.00018147,-0.
 00004108,-0.00000315,0.00002922,0.00114428,-0.00073005,0.00055858,0.00
 001290,-0.00002271,-0.00002840,0.00004503,0.00007673,-0.00000398,-0.00
 001868,0.00013242,0.00012000,-0.00003008,0.00004277,0.00001680,-0.0000
 8283,-0.00005902,0.00004996,-0.00140684,0.00346260,-0.00111253,-0.0000
 2682,-0.00131765,-0.00091228,-0.02463091,-0.01533311,-0.00941664,0.000
 76418,0.00038366,0.00044344,-0.00020463,0.00024552,-0.00001247,0.00247
 850,-0.00260563,0.00069357,-0.00086079,0.00009378,-0.00051851,0.000050
 62,0.00003282,0.00009303,0.00049222,0.00119951,0.00033308,0.00009860,-
 0.00017303,0.00006754,-0.25104965,-0.13950582,-0.10333037,0.01629846,0
 .01048779,0.00709087,0.26096482,0.00008137,0.00008785,-0.00013013,-0.0
 0001861,-0.00001457,-0.00003127,0.00000503,0.00000340,0.00000708,0.000
 02786,-0.00002096,-0.00001280,0.00002922,-0.00000264,0.00004227,-0.000
 01508,0.00000896,0.00001086,0.00000852,-0.00000464,-0.00002132,0.00000
 741,0.00000787,0.00002135,-0.00000163,0.00000564,-0.00000783,-0.000009
 66,0.00000404,0.00000512,0.00000949,-0.00000631,0.00000139,0.00001684,
 0.00002266,-0.00001547,0.00000249,-0.00000952,-0.00000905,-0.00000606,
 0.00000341,0.00000484,0.00000198,-0.00000455,0.00000315,-0.00133610,-0
 .00086620,-0.00043513,0.00037809,-0.00018621,0.00034668,0.00049971,0.0
 0047278,-0.00034562,0.00014328,0.00102231,0.00004383,-0.00008849,-0.00
 050152,-0.00014463,-0.00240003,-0.00150775,0.00144153,-0.00023600,-0.0
 0214872,-0.00133608,-0.00024569,-0.00041654,0.00000509,0.00004938,0.00
 001401,0.00004355,0.00051345,0.00165145,0.00053511,-0.00009438,-0.0012
 0484,0.00040690,-0.00041261,-0.00053055,-0.00083119,-0.00002785,-0.000
 00178,0.00009270,0.00051291,-0.00057848,0.00135957,-0.00056435,0.00038
 576,-0.00039245,-0.00003956,-0.00004663,-0.00006444,0.00000798,0.00003
 338,-0.00009672,0.00053503,0.00094679,-0.00065228,-0.00018936,-0.00022
 016,-0.00047200,-0.00013856,0.00005297,-0.00012549,0.00119304,-0.00092
 586,0.00026790,-0.00025422,0.00118958,0.00043725,-0.00064019,0.0000893
 5,0.00000987,0.00005016,-0.00019083,0.00008083,0.00026118,0.00012605,0
 .00002508,-0.00015265,-0.00009039,-0.00000298,-0.00012941,-0.00000729,
 -0.00005579,0.00014037,0.00006982,0.00006646,0.00010306,0.00016069,-0.
 00005603,0.00122890,0.00081521,-0.00089087,-0.00002078,0.00000468,-0.0
 0000645,-0.00000911,0.00007820,-0.00001118,0.00015660,-0.00004277,-0.0
 0001379,-0.00002643,-0.00001129,-0.00005733,-0.00000453,-0.00001508,0.
 00002331,0.00009506,0.00005553,0.00010318,0.00001604,0.00001926,-0.000
 01004,-0.00001405,-0.00002083,0.00001177,-0.00000671,0.00001354,-0.000
 04957,-0.00014791,-0.00008711,0.00032773,0.00004639,-0.00001538,0.0000
 4303,-0.00002231,0.00000218,0.00008545,0.00000766,0.00009250,0.0000779
 1,-0.00109300,-0.00224695,0.00017439,-0.00002671,0.00003735,-0.0000250
 5,0.00002032,0.00004738,-0.00002851,0.00008235,0.00006148,-0.00005655,
 0.00000378,0.00001408,0.00001479,0.00003178,0.00005210,0.00000788,0.00
 474362,-0.00338701,0.00135337,0.00061107,0.00095124,-0.00003862,0.0187
 0602,0.01685534,0.01260112,0.00023884,-0.00005862,0.00007803,0.0003139
 7,-0.00017172,0.00018458,0.00286550,0.00088698,0.00155416,-0.00045810,
 -0.00016173,-0.00036533,-0.00011619,-0.00007169,0.00002169,-0.00003666
 ,-0.00145507,-0.00016068,0.00001926,-0.00002239,-0.00000218,-0.1505109
 8,-0.18277759,-0.10387507,-0.01816601,-0.01157761,-0.00337687,0.143972
 19,0.18528478,-0.00050277,-0.00075902,0.00063596,0.00003218,-0.0000898
 7,0.00000706,-0.00002563,0.00000342,-0.00002472,-0.00006474,-0.0000236
 6,0.00001170,0.00001239,0.00005306,0.00010308,0.00003636,0.00002605,-0
 .00002413,0.00000664,-0.00001222,-0.00005702,-0.00000940,-0.00001123,0
 .00001584,0.00001624,0.00000361,-0.00002297,-0.00002655,0.00001579,0.0
 0001718,0.00000889,0.00000122,0.00000383,0.00006266,0.00008072,-0.0000
 3447,0.00000851,-0.00002729,-0.00002390,0.00000300,-0.00003482,0.00001
 333,-0.00002611,-0.00001112,0.00000585,0.00042223,-0.00037887,0.000634
 88,0.00065049,-0.00001330,0.00042805,0.00039931,0.00048247,-0.00062358
 ,-0.00044172,0.00092893,0.00027208,0.00024374,-0.00058989,-0.00035164,
 -0.00460619,-0.00040980,0.00282281,0.00417998,-0.00018361,-0.00490150,
 0.00021004,-0.00026717,0.00005843,-0.00007194,-0.00000864,-0.00022723,
 -0.00018865,0.00213134,-0.00062033,0.00030880,-0.00150932,0.00125014,-
 0.00084836,-0.00114856,0.00045422,-0.00020105,0.00082092,-0.00006722,0
 .00004396,0.00001363,0.00008850,0.00009978,-0.00019266,-0.00019702,0.0
 0046289,0.00007215,-0.00019818,-0.00015007,-0.00009486,-0.00068481,-0.
 00075706,-0.00049882,-0.00057446,0.00000352,0.00009649,0.00057236,0.00
 011993,0.00004164,-0.00006404,0.00141486,-0.00126965,0.00106422,-0.000
 61815,0.00203493,-0.00028003,-0.00105780,0.00022176,-0.00016853,0.0000
 9840,-0.00021785,0.00018800,0.00016687,0.00013201,0.00012763,-0.000101
 60,-0.00006609,-0.00009547,-0.00012012,-0.00002202,-0.00011704,0.00120
 293,0.00063693,0.00010780,0.00050423,-0.00000749,-0.00012045,-0.000352
 47,-0.00048095,-0.00201898,-0.00006833,0.00000893,-0.00006068,-0.00003
 362,-0.00000671,0.00003620,0.00020003,-0.00012839,-0.00002717,-0.00001
 535,0.00000061,-0.00005909,0.00004883,-0.00006531,0.00004765,-0.000025
 98,0.00013654,0.00002834,-0.00018710,0.00001686,0.00001820,-0.00010205
 ,-0.00006028,0.00006163,0.00001668,-0.00014012,-0.00001589,0.00067751,
 0.00040433,-0.00037208,-0.00009660,-0.00003850,-0.00003311,0.00003632,
 -0.00004122,-0.00007281,0.00007295,-0.00001464,-0.00007736,0.00118841,
 0.00171319,0.00060517,-0.00003492,0.00004839,-0.00004838,-0.00004330,0
 .00009363,-0.00001878,0.00012475,0.00007227,0.00004954,-0.00002177,0.0
 0003988,0.00003637,0.00001139,-0.00005388,0.00006321,0.00031229,0.0016
 8155,0.00301619,-0.00045811,-0.00020516,0.00069177,-0.01456258,-0.0007
 4239,-0.00956436,0.00051012,-0.00000838,0.00033497,0.00009118,0.000017
 15,-0.00010998,0.00266811,-0.00187302,-0.00040775,-0.00033999,-0.00001
 254,-0.00112231,0.00001441,-0.00000288,0.00004703,-0.00007518,0.000128
 06,0.00083922,0.00007119,-0.00017312,0.00008058,-0.07440692,-0.0776889
 8,-0.07326872,-0.02062133,-0.01487371,-0.00941164,0.10461048,0.0922861
 5,0.09110530,-0.01533689,0.01624195,0.00064747,-0.08853159,-0.02958105
 ,-0.00017832,-0.01711391,-0.00634258,-0.01356359,0.00327929,-0.0001845
 6,-0.00063192,-0.05990836,-0.00436027,0.00980235,0.00779344,-0.0013122
 7,-0.01524452,-0.00543490,-0.00155476,0.02284288,-0.02731762,-0.007254
 20,-0.01718972,0.00116253,-0.00064301,0.00011705,0.00165990,-0.0004478
 5,0.00061006,-0.00305720,0.00449908,0.00111790,-0.00350817,0.00066198,
 0.01081728,0.00089129,0.00173995,0.00060091,0.00046484,-0.00033819,-0.
 00124289,0.00020595,-0.00056063,0.00043278,-0.00117131,0.00059727,0.00
 280879,0.00002113,-0.00004854,0.00001588,0.00001289,0.00002175,-0.0000
 0166,-0.00002672,0.00013336,0.00006991,0.00001618,-0.00013174,-0.00008
 592,-0.00015963,-0.00000982,0.00002395,0.00024319,-0.00003187,0.000058
 24,-0.00000572,-0.00006384,-0.00005344,-0.00002158,0.00002429,0.000029
 76,0.00001426,0.00039088,0.00003756,0.00017875,-0.00031277,0.00008902,
 -0.00022807,-0.00030426,0.00002275,0.00019802,0.00022096,-0.00001483,0
 .00022516,-0.00010892,0.00055994,-0.00010239,-0.00008821,-0.00024038,0
 .00003178,0.00107020,0.00116882,-0.00232838,0.00244556,-0.00444780,-0.
 00038468,-0.00040160,-0.00044075,0.00014287,0.00000651,0.00050257,0.00
 060891,0.00065840,0.00062923,0.00019948,0.00043486,-0.00058204,-0.0000
 3919,-0.00053031,0.00011606,-0.00015666,-0.00016820,0.00015056,0.00000
 839,-0.00004145,0.00005740,0.00020527,0.00006745,0.00002769,-0.0001193
 9,-0.00006309,0.00000687,-0.00009165,0.00000002,-0.00004270,0.00002042
 ,-0.00000535,0.00000222,0.00000904,0.00000972,-0.00000931,-0.00007252,
 0.00004456,-0.00006893,0.00000013,-0.00000640,-0.00000719,0.00000196,0
 .00002123,-0.00000362,0.00000919,0.00000804,0.00000365,0.00000424,-0.0
 0001100,-0.00000528,0.00001650,-0.00000221,0.00001391,0.00004880,0.000
 05874,0.00003308,0.00034325,-0.00016693,-0.00016708,-0.00021719,-0.000
 13781,-0.00002794,0.00003017,-0.00004119,-0.00004162,-0.00000450,0.000
 14963,-0.00042170,-0.00041188,-0.00049601,-0.00009878,-0.00034046,-0.0
 0010374,-0.00004443,0.00005704,-0.00002565,0.00000795,-0.00010341,0.00
 056001,-0.00006205,0.00001208,-0.00000022,-0.00002095,0.00002564,0.000
 03220,0.00000432,0.00000167,0.00006375,0.00001303,0.00001148,0.0000046
 4,0.00001242,0.00049281,0.00109764,-0.00011846,0.00044268,-0.00019943,
 0.00074308,0.00023577,-0.00068768,0.00046034,-0.00209907,-0.00003954,0
 .00055809,0.00019200,0.00009204,-0.00004089,-0.00010999,0.00005724,-0.
 00021847,0.00016657,-0.00046208,-0.00013092,-0.00026884,0.00010255,-0.
 00012012,0.00000315,-0.00000031,-0.00002295,-0.00001042,0.00001101,0.0
 0003651,-0.00002751,0.00000758,0.00002289,0.00097265,-0.00076958,0.000
 35024,-0.00008521,0.00056484,-0.00000519,-0.00009399,-0.00007723,-0.00
 010995,0.20822824,0.00256385,-0.03472215,0.00027377,-0.02203529,-0.048
 47861,-0.00274960,-0.02038895,-0.00441662,-0.01475633,-0.00283271,-0.0
 0210805,-0.00194641,-0.00625349,-0.04033362,0.00503970,-0.00376427,-0.
 00028608,0.00772787,-0.00266502,-0.00146634,0.01437197,0.00961777,0.00
 856692,0.00709005,-0.00020585,0.00010583,-0.00028226,0.00046495,0.0009
 3778,0.00058589,0.00323834,-0.00165537,0.00017750,0.00691533,0.0059571
 6,-0.02263274,0.00082281,-0.00437155,-0.00224424,-0.00005352,0.0003726
 0,-0.00037310,-0.00000089,0.00057340,0.00024048,0.00045542,0.00196482,
 -0.00215121,0.00000823,0.00003110,0.00001062,-0.00000430,-0.00000845,-
 0.00001916,0.00006596,-0.00002213,-0.00016017,-0.00003040,0.00009325,0
 .00013797,-0.00001500,-0.00002303,-0.00000847,0.00002511,0.00001354,0.
 00004601,-0.00001946,-0.00001987,0.00011071,0.00004009,-0.00004318,-0.
 00008375,0.00007105,0.00023838,0.00001278,-0.00001579,-0.00010284,0.00
 006626,-0.00023964,-0.00007072,0.00006100,-0.00024255,-0.00013920,-0.0
 0007335,-0.00018383,0.00017514,-0.00102775,0.00009025,0.00000520,0.000
 39490,0.00032463,-0.00035575,0.00001975,0.00357168,-0.00254142,0.00320
 386,0.00048994,0.00027753,0.00076654,-0.00006007,-0.00015767,-0.000561
 41,0.00008677,-0.00228676,-0.00091774,-0.00038534,-0.00023985,0.000484
 01,0.00017661,0.00032382,-0.00011741,0.00025932,0.00009556,-0.00012923
 ,-0.00003025,0.00007664,-0.00007252,-0.00021655,-0.00003608,-0.0000523
 0,0.00012139,0.00003674,0.00000935,0.00011291,-0.00001761,0.00006116,-
 0.00000026,0.00001058,0.00000147,-0.00000418,-0.00000596,0.00000601,-0
 .00000304,0.00002064,-0.00006098,0.00000083,0.00000951,0.00001095,-0.0
 0000669,-0.00001114,-0.00000120,0.00000224,-0.00001313,-0.00000366,-0.
 00001770,0.00000801,-0.00000042,-0.00000161,-0.00001192,0.00000464,-0.
 00003445,-0.00004277,-0.00003629,-0.00015810,0.00003560,0.00016000,-0.
 00013110,0.00014486,-0.00006115,-0.00005852,-0.00001988,0.00005772,0.0
 0025777,0.00019752,-0.00001594,0.00081660,0.00066280,-0.00009816,-0.00
 000061,0.00003785,0.00016977,-0.00006838,0.00001535,-0.00002334,0.0000
 7796,-0.00033851,-0.00004334,-0.00000549,-0.00000979,0.00002032,-0.000
 01284,-0.00002799,-0.00000306,-0.00001987,-0.00005636,-0.00001096,-0.0
 0001370,0.00000032,-0.00001391,0.00441259,0.00341520,-0.00073898,-0.00
 101712,-0.00022761,-0.00039760,0.00033759,0.00061490,0.00031411,-0.000
 33504,-0.00046759,0.00041346,-0.00072165,-0.00136710,-0.00040920,-0.00
 003412,0.00002119,-0.00000305,-0.00013450,0.00039650,-0.00014538,0.000
 93453,-0.00021289,0.00054403,0.00000298,0.00006913,-0.00007475,-0.0000
 1327,-0.00000654,-0.00000602,0.00002633,0.00004339,-0.00000236,-0.0001
 4394,0.00015797,0.00004615,0.00016628,-0.00021933,-0.00001454,0.000004
 81,-0.00002081,0.00001338,0.02601644,0.12125553,-0.00010628,-0.0039990
 0,-0.01279367,-0.02423739,-0.02214600,-0.05198246,0.00078228,0.0000057
 8,-0.00103393,-0.02474085,-0.00921176,-0.01366448,0.03362139,0.0228310
 0,-0.09214282,0.00592242,0.00304027,-0.02080836,0.00194879,0.00195865,
 -0.01615053,-0.00553766,0.00125067,-0.00164583,0.00156905,0.00004905,0
 .00028237,-0.00018088,0.00042747,0.00007601,0.00058016,0.00054740,0.00
 077211,0.00683362,-0.00418415,-0.02233920,0.00035774,-0.00291589,0.000
 43374,-0.00023191,0.00061642,0.00116347,-0.00065617,0.00093935,0.00168
 551,0.00176720,-0.00124361,-0.00556631,-0.00002120,0.00004066,-0.00003
 102,-0.00001631,-0.00002041,0.00002155,-0.00006369,-0.00015896,0.00011
 345,0.00003329,0.00006493,-0.00005839,0.00016421,0.00001442,-0.0000168
 4,-0.00026331,0.00004255,-0.00015668,0.00006365,0.00011138,-0.00006012
 ,-0.00002310,0.00001829,0.00004839,-0.00015194,-0.00059452,-0.00007604
 ,-0.00003174,0.00041666,-0.00011683,0.00036752,0.00034648,-0.00002563,
 0.00001227,-0.00022497,0.00009058,-0.00006371,-0.00006671,0.00024298,0
 .00005307,0.00011753,-0.00006791,0.00019093,-0.00073702,-0.00146703,-0
 .00149553,0.00266473,-0.00084439,0.00010459,0.00027909,-0.00013964,-0.
 00000511,-0.00003018,-0.00029017,-0.00050102,0.00016640,0.00003031,0.0
 0006835,-0.00040657,0.00042100,-0.00014910,0.00045963,-0.00013970,-0.0
 0004987,0.00012573,-0.00009396,0.00001712,-0.00001488,0.00000064,-0.00
 006513,-0.00004710,0.00001846,0.00004160,0.00004328,-0.00002249,0.0000
 1393,0.00001276,-0.00000569,-0.00002018,0.00000260,-0.00000260,0.00000
 254,-0.00000598,0.00000312,0.00002664,-0.00009461,0.00015864,-0.000004
 32,-0.00000351,-0.00000564,0.00000246,-0.00001972,0.00000737,-0.000013
 02,-0.00000195,-0.00000127,0.00001860,0.00000596,0.00000703,-0.0000042
 5,0.00000530,-0.00001954,-0.00003026,-0.00002816,-0.00001117,-0.000273
 69,0.00018720,-0.00000090,0.00041051,0.00001445,0.00018469,0.00003405,
 0.00003660,-0.00000600,-0.00035380,-0.00016485,0.00014733,0.00005051,0
 .00009128,0.00007228,0.00036711,0.00007977,-0.00011610,-0.00006244,-0.
 00000355,-0.00000325,0.00011818,-0.00037001,0.00016512,-0.00001078,0.0
 0000855,0.00000790,-0.00002395,-0.00001391,-0.00000047,0.00001615,-0.0
 0002581,-0.00000557,-0.00000374,-0.00000330,-0.00000106,0.00150292,-0.
 00156970,0.00240157,0.00220913,0.00183613,-0.00357701,0.00063530,0.000
 16787,-0.00178815,0.00067742,-0.00025881,-0.00079103,0.00009531,0.0002
 4749,0.00024593,-0.00007441,-0.00001509,-0.00007883,-0.00014145,-0.000
 33808,0.00030782,-0.00062831,-0.00009713,-0.00001433,0.00002010,-0.000
 05921,0.00006930,0.00000262,-0.00002987,-0.00002057,0.00000415,-0.0000
 4538,-0.00003135,-0.00093844,0.00032440,-0.00018981,0.00021553,-0.0003
 1684,0.00000854,0.00017162,-0.00000016,0.00022353,0.00008089,0.0098692
 4,0.23899402\\-0.00000170,-0.00000911,0.00000413,0.00000691,-0.0000074
 1,0.00000410,-0.00000246,0.00000515,-0.00000048,-0.00000257,0.00000315
 ,0.00000202,0.00000041,0.00000767,-0.00000027,0.00000131,0.00000329,0.
 00000280,-0.00000311,0.00000776,0.00000208,-0.00000477,0.00000595,-0.0
 0000482,0.00000313,0.00000622,-0.00000278,0.00000170,0.00000356,-0.000
 00141,-0.00000003,0.00000300,0.00000237,0.00000204,0.00000772,-0.00000
 190,0.00000097,0.00000897,-0.00000218,0.00000096,0.00000604,-0.0000027
 6,-0.00000052,0.00000514,-0.00000327,-0.00000513,0.00000130,0.00000260
 ,0.00000011,-0.00000200,-0.00000177,0.00000756,-0.00000109,-0.00000459
 ,-0.00000103,-0.00000101,-0.00000362,-0.00000170,0.00000013,0.00000362
 ,0.00000197,-0.00000237,-0.00000665,0.00000267,-0.00000001,-0.00000272
 ,-0.00000050,0.00000119,0.00000064,-0.00000163,0.00000264,0.00000689,0
 .00000620,0.00000405,-0.00002801,-0.00000112,0.00000250,0.00000950,0.0
 0000058,0.00000445,0.00001139,0.00000195,0.00000323,0.00000640,-0.0000
 1622,-0.00001413,-0.00000569,-0.00000030,0.00000716,0.00000868,0.00000
 240,0.00000493,0.00000494,-0.00000220,-0.00000122,0.00000682,0.0000015
 6,-0.00000138,0.00000831,-0.00000143,-0.00000670,-0.00000380,-0.000002
 96,-0.00000146,0.00000847,-0.00000628,-0.00001127,-0.00000544,0.000004
 02,-0.00000373,0.00000144,0.00000240,-0.00000189,0.00000323,-0.0000000
 6,-0.00000968,0.00000322,-0.00000150,-0.00000423,0.00000578,-0.0000001
 6,-0.00000918,0.00000099,-0.00000193,-0.00000551,-0.00000015,0.0000015
 7,-0.00000219,-0.00000562,0.00000208,-0.00000249,-0.00000323,-0.000002
 11,-0.00000151,-0.00000201,0.00000155,0.00000098,-0.00000293,0.0000018
 3,-0.00000447,-0.00000338,0.00000181,-0.00000167,-0.00000405,-0.000000
 25,0.00000165,-0.00000449,0.00000027,0.00000323,0.00000578,-0.00000055
 ,0.00000036,-0.00000254,-0.00000311,0.00000646,0.00000307,-0.00000155,
 0.00000589,0.00000581,-0.00000015,0.00000309,0.00000228,0.00000187,0.0
 0000287,-0.00000166,0.00000028,-0.00000333,0.00000601,-0.00000043,-0.0
 0000336,0.00000171,-0.00000403,-0.00000361,0.00000634,-0.00000345,0.00
 000498,0.00000016,-0.00000384,-0.00000530,0.00000508,-0.00000019,-0.00
 000296,0.00000322,-0.00000046,-0.00000695,0.00000210,-0.00000217,-0.00
 000607,0.00000385,0.00000167,0.00000409,0.00000842,0.00000350,-0.00000
 569,-0.00000061,0.00000287,0.00000334,-0.00000359,0.00000105,0.0000040
 2,-0.00000345,0.00000061,-0.00000472,-0.00000487,0.00000133,-0.0000022
 8,-0.00000307,0.00000102,-0.00000153,-0.00000442,0.00000432,-0.0000011
 3,-0.00000430,0.00000281,-0.00000143,-0.00000472,0.00000213,-0.0000008
 2,-0.00000571,0.00000257,-0.00000128,-0.00000715,0.00000291,-0.0000035
 9,-0.00000057,-0.00000077,0.00000072,0.00000002,-0.00000185,-0.0000026
 8,-0.00000374,-0.00000266,0.00001559,-0.00000589\\\@


 THERE IS NO SCIENCE WITHOUT FANCY, NOR ART WITHOUT FACTS.
     -- VLADIMIR NABAKOV
 Job cpu time:       0 days 15 hours 48 minutes 22.3 seconds.
 File lengths (MBytes):  RWF=   4766 Int=      0 D2E=      0 Chk=     40 Scr=      1
 Normal termination of Gaussian 09 at Thu Jul 20 14:50:32 2023.
