 Entering Gaussian System, Link 0=g09
 Input=cpx-new-2-p.com
 Output=cpx-new-2-p.log
 Initial command:
 /home/scr/programs/g09/l1.exe "/home/scr/guest2/Gau-14781.inp" -scrdir="/home/scr/guest2/"
 Entering Link 1 = /home/scr/programs/g09/l1.exe PID=     14782.
  
 Copyright (c) 1988,1990,1992,1993,1995,1998,2003,2009,2013,
            Gaussian, Inc.  All Rights Reserved.
  
 This is part of the Gaussian(R) 09 program.  It is based on
 the Gaussian(R) 03 system (copyright 2003, Gaussian, Inc.),
 the Gaussian(R) 98 system (copyright 1998, Gaussian, Inc.),
 the Gaussian(R) 94 system (copyright 1995, Gaussian, Inc.),
 the Gaussian 92(TM) system (copyright 1992, Gaussian, Inc.),
 the Gaussian 90(TM) system (copyright 1990, Gaussian, Inc.),
 the Gaussian 88(TM) system (copyright 1988, Gaussian, Inc.),
 the Gaussian 86(TM) system (copyright 1986, Carnegie Mellon
 University), and the Gaussian 82(TM) system (copyright 1983,
 Carnegie Mellon University). Gaussian is a federally registered
 trademark of Gaussian, Inc.
  
 This software contains proprietary and confidential information,
 including trade secrets, belonging to Gaussian, Inc.
  
 This software is provided under written license and may be
 used, copied, transmitted, or stored only in accord with that
 written license.
  
 The following legend is applicable only to US Government
 contracts under FAR:
  
                    RESTRICTED RIGHTS LEGEND
  
 Use, reproduction and disclosure by the US Government is
 subject to restrictions as set forth in subparagraphs (a)
 and (c) of the Commercial Computer Software - Restricted
 Rights clause in FAR 52.227-19.
  
 Gaussian, Inc.
 340 Quinnipiac St., Bldg. 40, Wallingford CT 06492
  
  
 ---------------------------------------------------------------
 Warning -- This program may not be used in any manner that
 competes with the business of Gaussian, Inc. or will provide
 assistance to any competitor of Gaussian, Inc.  The licensee
 of this program is prohibited from giving any competitor of
 Gaussian, Inc. access to this program.  By using this program,
 the user acknowledges that Gaussian, Inc. is engaged in the
 business of creating and licensing software in the field of
 computational chemistry and represents and warrants to the
 licensee that it is not a competitor of Gaussian, Inc. and that
 it will not use this program in any manner prohibited above.
 ---------------------------------------------------------------
  

 Cite this work as:
 Gaussian 09, Revision D.01,
 M. J. Frisch, G. W. Trucks, H. B. Schlegel, G. E. Scuseria, 
 M. A. Robb, J. R. Cheeseman, G. Scalmani, V. Barone, B. Mennucci, 
 G. A. Petersson, H. Nakatsuji, M. Caricato, X. Li, H. P. Hratchian, 
 A. F. Izmaylov, J. Bloino, G. Zheng, J. L. Sonnenberg, M. Hada, 
 M. Ehara, K. Toyota, R. Fukuda, J. Hasegawa, M. Ishida, T. Nakajima, 
 Y. Honda, O. Kitao, H. Nakai, T. Vreven, J. A. Montgomery, Jr., 
 J. E. Peralta, F. Ogliaro, M. Bearpark, J. J. Heyd, E. Brothers, 
 K. N. Kudin, V. N. Staroverov, T. Keith, R. Kobayashi, J. Normand, 
 K. Raghavachari, A. Rendell, J. C. Burant, S. S. Iyengar, J. Tomasi, 
 M. Cossi, N. Rega, J. M. Millam, M. Klene, J. E. Knox, J. B. Cross, 
 V. Bakken, C. Adamo, J. Jaramillo, R. Gomperts, R. E. Stratmann, 
 O. Yazyev, A. J. Austin, R. Cammi, C. Pomelli, J. W. Ochterski, 
 R. L. Martin, K. Morokuma, V. G. Zakrzewski, G. A. Voth, 
 P. Salvador, J. J. Dannenberg, S. Dapprich, A. D. Daniels, 
 O. Farkas, J. B. Foresman, J. V. Ortiz, J. Cioslowski, 
 and D. J. Fox, Gaussian, Inc., Wallingford CT, 2013.
 
 ******************************************
 Gaussian 09:  EM64L-G09RevD.01 24-Apr-2013
                27-Jul-2023 
 ******************************************
 %mem=50000MB
 %nprocshared=12
 Will use up to   12 processors via shared memory.
 ----------------------------------------
 # opt freq=noraman b3lyp/gen pseudo=read
 ----------------------------------------
 1/14=-1,18=20,19=15,26=3,38=1/1,3;
 2/9=110,12=2,17=6,18=5,40=1/2;
 3/5=7,11=2,16=1,17=8,25=1,30=1,71=1,74=-5/1,2,3;
 4//1;
 5/5=2,38=5/2;
 6/7=2,8=2,9=2,10=2,28=1/1;
 7//1,2,3,16;
 1/14=-1,18=20,19=15,26=3/3(2);
 2/9=110/2;
 99//99;
 2/9=110/2;
 3/5=7,6=1,11=2,16=1,17=8,25=1,30=1,71=1,74=-5,82=7/1,2,3;
 4/5=5,16=3,69=1/1;
 5/5=2,38=5/2;
 7//1,2,3,16;
 1/14=-1,18=20,19=15,26=3/3(-5);
 2/9=110/2;
 6/7=2,8=2,9=2,10=2,19=2,28=1/1;
 99/9=1/99;
 -------------------
 Title Card Required
 -------------------
 Symbolic Z-matrix:
 Charge =  0 Multiplicity = 1
 Au                   -2.40694  -0.83109   0.009 
 P                    -4.53122   0.16918   0.48025 
 C                    -4.59932   1.99925   0.66088 
 H                    -5.6297    2.26721   0.9312 
 H                    -4.38917   2.4274   -0.3278 
 C                    -5.08014  -0.53395   2.08819 
 H                    -4.26204  -0.37301   2.80293 
 H                    -5.13606  -1.6184    1.93265 
 C                    -5.77836  -0.11417  -1.89572 
 H                    -5.98011   0.9365   -2.14098 
 H                    -4.77149  -0.37221  -2.25914 
 C                    -6.42384   0.00064   2.62472 
 H                    -6.6933   -0.53791   3.54224 
 H                    -6.36251   1.06816   2.86849 
 H                    -7.22649  -0.14561   1.89324 
 C                    -3.58774   2.54147   1.68548 
 H                    -2.56223   2.22621   1.43399 
 H                    -3.61581   3.63592   1.68959 
 H                    -3.80283   2.19628   2.70027 
 S                    -1.91506   0.02421  -2.38841 
 N                     6.8718    2.87256  -0.17946 
 C                     5.49798   2.65744   0.28472 
 C                     5.26713   1.1955    0.69378 
 O                     5.71925   0.29567  -0.01145 
 C                     4.55241   3.03663  -0.87604 
 O                     3.17337   2.82779  -0.58554 
 N                     4.64348   0.88794   1.87793 
 C                     3.89664   1.76058   2.77203 
 C                     2.4542    2.09984   2.31244 
 O                     2.19046   3.26013   1.9545 
 N                     1.52434   1.11929   2.33547 
 C                     1.68934  -0.28224   2.67519 
 C                     2.29765  -1.15629   1.56025 
 O                     3.12209  -2.02871   1.86455 
 C                     0.36387  -0.91858   3.21731 
 S                    -1.33916  -0.30925   2.63291 
 N                     1.86931  -0.95345   0.28773 
 C                     1.97472  -2.00164  -0.72859 
 C                     0.58975  -2.49755  -1.24649 
 C                     2.79514  -1.46387  -1.91766 
 O                     2.28142  -0.69486  -2.73057 
 N                     4.07987  -1.87075  -2.03844 
 C                     4.88919  -2.5773   -1.05736 
 C                     6.34599  -2.35457  -1.40338 
 O                     6.75111  -1.78238  -2.40038 
 O                     7.16076  -2.9039   -0.48237 
 H                     4.76254   4.07878  -1.1574 
 H                     4.78247   2.39982  -1.7354 
 H                     2.93624   3.28394   0.24926 
 H                     5.30472   3.34028   1.11272 
 H                     7.11151   2.07054  -0.76754 
 H                     7.51398   2.83925   0.61048 
 H                     4.39994   2.72462   2.87197 
 H                     3.87483   1.29418   3.76254 
 H                     4.53772  -0.11154   2.02203 
 H                     0.34086  -0.66755   4.30838 
 H                     0.45206  -2.02897   3.106 
 H                     2.4167   -0.37763   3.49146 
 H                     0.56324   1.3979    2.07259 
 H                     0.72569  -3.46946  -1.74367 
 H                     0.19215  -1.81278  -1.99899 
 H                     2.4864   -2.82742  -0.23681 
 H                     1.215    -0.18532   0.12095 
 H                     4.70073  -3.66268  -1.07339 
 H                     4.7092   -2.22281  -0.04111 
 H                     4.61081  -1.42584  -2.7811 
 H                     8.07228  -2.72359  -0.7802 
 Se                   -0.69339  -2.6005    0.24454 
 C                    -1.64275   1.71673  -2.11949 
 C                    -2.67277   2.65865  -2.3887 
 C                    -0.38478   2.21128  -1.60735 
 C                    -2.53339   4.0044   -2.11667 
 H                    -3.59455   2.27914  -2.83231 
 C                    -0.27721   3.5933   -1.29609 
 C                    -1.32411   4.46106  -1.53957 
 H                    -3.33216   4.70248  -2.33779 
 H                     0.65617   3.95971  -0.88742 
 H                    -1.20525   5.51649  -1.30812 
 N                     0.68129   1.39079  -1.39578 
 H                     0.79399   0.56803  -1.99683 
 H                     1.58185   1.85253  -1.21392 
 C                    -6.83668  -1.02489  -2.47789 
 H                    -7.825    -0.77263  -2.0887 
 H                    -6.8604   -0.91431  -3.5669 
 H                    -6.62115  -2.07288  -2.2363 
 O                    -5.81219  -0.25524  -0.45469 
 

 GradGradGradGradGradGradGradGradGradGradGradGradGradGradGradGradGradGrad
 Berny optimization.
 Initialization pass.
                           ----------------------------
                           !    Initial Parameters    !
                           ! (Angstroms and Degrees)  !
 --------------------------                            --------------------------
 ! Name  Definition              Value          Derivative Info.                !
 --------------------------------------------------------------------------------
 ! R1    R(1,2)                  2.3948         estimate D2E/DX2                !
 ! R2    R(1,20)                 2.5925         estimate D2E/DX2                !
 ! R3    R(1,68)                 2.4744         estimate D2E/DX2                !
 ! R4    R(2,3)                  1.8402         estimate D2E/DX2                !
 ! R5    R(2,6)                  1.8388         estimate D2E/DX2                !
 ! R6    R(2,86)                 1.6417         estimate D2E/DX2                !
 ! R7    R(3,4)                  1.0984         estimate D2E/DX2                !
 ! R8    R(3,5)                  1.0977         estimate D2E/DX2                !
 ! R9    R(3,16)                 1.5385         estimate D2E/DX2                !
 ! R10   R(6,7)                  1.0982         estimate D2E/DX2                !
 ! R11   R(6,8)                  1.097          estimate D2E/DX2                !
 ! R12   R(6,12)                 1.5425         estimate D2E/DX2                !
 ! R13   R(9,10)                 1.0976         estimate D2E/DX2                !
 ! R14   R(9,11)                 1.1011         estimate D2E/DX2                !
 ! R15   R(9,82)                 1.5127         estimate D2E/DX2                !
 ! R16   R(9,86)                 1.4483         estimate D2E/DX2                !
 ! R17   R(12,13)                1.0975         estimate D2E/DX2                !
 ! R18   R(12,14)                1.0967         estimate D2E/DX2                !
 ! R19   R(12,15)                1.0958         estimate D2E/DX2                !
 ! R20   R(16,17)                1.102          estimate D2E/DX2                !
 ! R21   R(16,18)                1.0948         estimate D2E/DX2                !
 ! R22   R(16,19)                1.0933         estimate D2E/DX2                !
 ! R23   R(20,69)                1.7353         estimate D2E/DX2                !
 ! R24   R(21,22)                1.466          estimate D2E/DX2                !
 ! R25   R(21,51)                1.023          estimate D2E/DX2                !
 ! R26   R(21,52)                1.0186         estimate D2E/DX2                !
 ! R27   R(22,23)                1.5355         estimate D2E/DX2                !
 ! R28   R(22,25)                1.5444         estimate D2E/DX2                !
 ! R29   R(22,50)                1.0905         estimate D2E/DX2                !
 ! R30   R(23,24)                1.2294         estimate D2E/DX2                !
 ! R31   R(23,27)                1.3732         estimate D2E/DX2                !
 ! R32   R(25,26)                1.4247         estimate D2E/DX2                !
 ! R33   R(25,47)                1.0997         estimate D2E/DX2                !
 ! R34   R(25,48)                1.0941         estimate D2E/DX2                !
 ! R35   R(26,49)                0.9804         estimate D2E/DX2                !
 ! R36   R(27,28)                1.4556         estimate D2E/DX2                !
 ! R37   R(27,55)                1.0153         estimate D2E/DX2                !
 ! R38   R(28,29)                1.5514         estimate D2E/DX2                !
 ! R39   R(28,53)                1.0921         estimate D2E/DX2                !
 ! R40   R(28,54)                1.095          estimate D2E/DX2                !
 ! R41   R(29,30)                1.2426         estimate D2E/DX2                !
 ! R42   R(29,31)                1.3515         estimate D2E/DX2                !
 ! R43   R(31,32)                1.4515         estimate D2E/DX2                !
 ! R44   R(31,59)                1.0346         estimate D2E/DX2                !
 ! R45   R(32,33)                1.5418         estimate D2E/DX2                !
 ! R46   R(32,35)                1.5671         estimate D2E/DX2                !
 ! R47   R(32,58)                1.0975         estimate D2E/DX2                !
 ! R48   R(33,34)                1.2383         estimate D2E/DX2                !
 ! R49   R(33,37)                1.3579         estimate D2E/DX2                !
 ! R50   R(35,36)                1.9008         estimate D2E/DX2                !
 ! R51   R(35,56)                1.1198         estimate D2E/DX2                !
 ! R52   R(35,57)                1.1194         estimate D2E/DX2                !
 ! R53   R(37,38)                1.4638         estimate D2E/DX2                !
 ! R54   R(37,63)                1.0227         estimate D2E/DX2                !
 ! R55   R(38,39)                1.5596         estimate D2E/DX2                !
 ! R56   R(38,40)                1.5415         estimate D2E/DX2                !
 ! R57   R(38,62)                1.0888         estimate D2E/DX2                !
 ! R58   R(39,60)                1.1001         estimate D2E/DX2                !
 ! R59   R(39,61)                1.0924         estimate D2E/DX2                !
 ! R60   R(39,68)                1.9698         estimate D2E/DX2                !
 ! R61   R(40,41)                1.2313         estimate D2E/DX2                !
 ! R62   R(40,42)                1.353          estimate D2E/DX2                !
 ! R63   R(42,43)                1.4549         estimate D2E/DX2                !
 ! R64   R(42,66)                1.0156         estimate D2E/DX2                !
 ! R65   R(43,44)                1.5138         estimate D2E/DX2                !
 ! R66   R(43,64)                1.1017         estimate D2E/DX2                !
 ! R67   R(43,65)                1.0912         estimate D2E/DX2                !
 ! R68   R(44,45)                1.2188         estimate D2E/DX2                !
 ! R69   R(44,46)                1.3468         estimate D2E/DX2                !
 ! R70   R(46,67)                0.9757         estimate D2E/DX2                !
 ! R71   R(69,70)                1.4215         estimate D2E/DX2                !
 ! R72   R(69,71)                1.4455         estimate D2E/DX2                !
 ! R73   R(70,72)                1.38           estimate D2E/DX2                !
 ! R74   R(70,73)                1.0911         estimate D2E/DX2                !
 ! R75   R(71,74)                1.4207         estimate D2E/DX2                !
 ! R76   R(71,79)                1.3618         estimate D2E/DX2                !
 ! R77   R(72,75)                1.4156         estimate D2E/DX2                !
 ! R78   R(72,76)                1.0836         estimate D2E/DX2                !
 ! R79   R(74,75)                1.3814         estimate D2E/DX2                !
 ! R80   R(74,77)                1.0828         estimate D2E/DX2                !
 ! R81   R(75,78)                1.087          estimate D2E/DX2                !
 ! R82   R(79,80)                1.0251         estimate D2E/DX2                !
 ! R83   R(79,81)                1.0282         estimate D2E/DX2                !
 ! R84   R(82,83)                1.0917         estimate D2E/DX2                !
 ! R85   R(82,84)                1.0949         estimate D2E/DX2                !
 ! R86   R(82,85)                1.0969         estimate D2E/DX2                !
 ! A1    A(2,1,20)             102.2673         estimate D2E/DX2                !
 ! A2    A(2,1,68)             153.4096         estimate D2E/DX2                !
 ! A3    A(20,1,68)            101.1019         estimate D2E/DX2                !
 ! A4    A(1,2,3)              117.873          estimate D2E/DX2                !
 ! A5    A(1,2,6)              106.0908         estimate D2E/DX2                !
 ! A6    A(1,2,86)             118.1699         estimate D2E/DX2                !
 ! A7    A(3,2,6)              106.4627         estimate D2E/DX2                !
 ! A8    A(3,2,86)             106.5064         estimate D2E/DX2                !
 ! A9    A(6,2,86)              99.5677         estimate D2E/DX2                !
 ! A10   A(2,3,4)              107.546          estimate D2E/DX2                !
 ! A11   A(2,3,5)              107.0016         estimate D2E/DX2                !
 ! A12   A(2,3,16)             113.0489         estimate D2E/DX2                !
 ! A13   A(4,3,5)              107.8236         estimate D2E/DX2                !
 ! A14   A(4,3,16)             111.5245         estimate D2E/DX2                !
 ! A15   A(5,3,16)             109.6621         estimate D2E/DX2                !
 ! A16   A(2,6,7)              106.8995         estimate D2E/DX2                !
 ! A17   A(2,6,8)              105.6189         estimate D2E/DX2                !
 ! A18   A(2,6,12)             115.5751         estimate D2E/DX2                !
 ! A19   A(7,6,8)              105.9698         estimate D2E/DX2                !
 ! A20   A(7,6,12)             111.8259         estimate D2E/DX2                !
 ! A21   A(8,6,12)             110.3372         estimate D2E/DX2                !
 ! A22   A(10,9,11)            108.5818         estimate D2E/DX2                !
 ! A23   A(10,9,82)            111.2042         estimate D2E/DX2                !
 ! A24   A(10,9,86)            108.1355         estimate D2E/DX2                !
 ! A25   A(11,9,82)            111.8157         estimate D2E/DX2                !
 ! A26   A(11,9,86)            109.0823         estimate D2E/DX2                !
 ! A27   A(82,9,86)            107.9344         estimate D2E/DX2                !
 ! A28   A(6,12,13)            109.5487         estimate D2E/DX2                !
 ! A29   A(6,12,14)            111.4664         estimate D2E/DX2                !
 ! A30   A(6,12,15)            111.079          estimate D2E/DX2                !
 ! A31   A(13,12,14)           107.7913         estimate D2E/DX2                !
 ! A32   A(13,12,15)           108.2245         estimate D2E/DX2                !
 ! A33   A(14,12,15)           108.6187         estimate D2E/DX2                !
 ! A34   A(3,16,17)            111.0433         estimate D2E/DX2                !
 ! A35   A(3,16,18)            109.752          estimate D2E/DX2                !
 ! A36   A(3,16,19)            112.1804         estimate D2E/DX2                !
 ! A37   A(17,16,18)           108.1019         estimate D2E/DX2                !
 ! A38   A(17,16,19)           107.7345         estimate D2E/DX2                !
 ! A39   A(18,16,19)           107.8847         estimate D2E/DX2                !
 ! A40   A(1,20,69)            102.0196         estimate D2E/DX2                !
 ! A41   A(22,21,51)           106.6518         estimate D2E/DX2                !
 ! A42   A(22,21,52)           109.9058         estimate D2E/DX2                !
 ! A43   A(51,21,52)           105.8096         estimate D2E/DX2                !
 ! A44   A(21,22,23)           111.4042         estimate D2E/DX2                !
 ! A45   A(21,22,25)           107.4426         estimate D2E/DX2                !
 ! A46   A(21,22,50)           108.3369         estimate D2E/DX2                !
 ! A47   A(23,22,25)           109.9947         estimate D2E/DX2                !
 ! A48   A(23,22,50)           111.5455         estimate D2E/DX2                !
 ! A49   A(25,22,50)           107.964          estimate D2E/DX2                !
 ! A50   A(22,23,24)           119.2573         estimate D2E/DX2                !
 ! A51   A(22,23,27)           120.7454         estimate D2E/DX2                !
 ! A52   A(24,23,27)           119.8509         estimate D2E/DX2                !
 ! A53   A(22,25,26)           113.7902         estimate D2E/DX2                !
 ! A54   A(22,25,47)           107.9375         estimate D2E/DX2                !
 ! A55   A(22,25,48)           108.5842         estimate D2E/DX2                !
 ! A56   A(26,25,47)           112.0878         estimate D2E/DX2                !
 ! A57   A(26,25,48)           106.1636         estimate D2E/DX2                !
 ! A58   A(47,25,48)           108.0863         estimate D2E/DX2                !
 ! A59   A(25,26,49)           109.8484         estimate D2E/DX2                !
 ! A60   A(23,27,28)           128.9345         estimate D2E/DX2                !
 ! A61   A(23,27,55)           112.9643         estimate D2E/DX2                !
 ! A62   A(28,27,55)           116.7137         estimate D2E/DX2                !
 ! A63   A(27,28,29)           115.2252         estimate D2E/DX2                !
 ! A64   A(27,28,53)           110.4245         estimate D2E/DX2                !
 ! A65   A(27,28,54)           108.0889         estimate D2E/DX2                !
 ! A66   A(29,28,53)           105.2221         estimate D2E/DX2                !
 ! A67   A(29,28,54)           110.0337         estimate D2E/DX2                !
 ! A68   A(53,28,54)           107.6009         estimate D2E/DX2                !
 ! A69   A(28,29,30)           119.1353         estimate D2E/DX2                !
 ! A70   A(28,29,31)           118.423          estimate D2E/DX2                !
 ! A71   A(30,29,31)           122.435          estimate D2E/DX2                !
 ! A72   A(29,31,32)           128.7775         estimate D2E/DX2                !
 ! A73   A(29,31,59)           116.0665         estimate D2E/DX2                !
 ! A74   A(32,31,59)           115.1556         estimate D2E/DX2                !
 ! A75   A(31,32,33)           115.0232         estimate D2E/DX2                !
 ! A76   A(31,32,35)           112.1421         estimate D2E/DX2                !
 ! A77   A(31,32,58)           109.4715         estimate D2E/DX2                !
 ! A78   A(33,32,35)           110.713          estimate D2E/DX2                !
 ! A79   A(33,32,58)           103.1261         estimate D2E/DX2                !
 ! A80   A(35,32,58)           105.5438         estimate D2E/DX2                !
 ! A81   A(32,33,34)           118.972          estimate D2E/DX2                !
 ! A82   A(32,33,37)           117.9395         estimate D2E/DX2                !
 ! A83   A(34,33,37)           123.0607         estimate D2E/DX2                !
 ! A84   A(32,35,36)           121.4185         estimate D2E/DX2                !
 ! A85   A(32,35,56)           105.273          estimate D2E/DX2                !
 ! A86   A(32,35,57)           107.5633         estimate D2E/DX2                !
 ! A87   A(36,35,56)           102.0802         estimate D2E/DX2                !
 ! A88   A(36,35,57)           110.9767         estimate D2E/DX2                !
 ! A89   A(56,35,57)           108.7146         estimate D2E/DX2                !
 ! A90   A(33,37,38)           121.3971         estimate D2E/DX2                !
 ! A91   A(33,37,63)           117.8279         estimate D2E/DX2                !
 ! A92   A(38,37,63)           118.0773         estimate D2E/DX2                !
 ! A93   A(37,38,39)           113.223          estimate D2E/DX2                !
 ! A94   A(37,38,40)           108.9099         estimate D2E/DX2                !
 ! A95   A(37,38,62)           105.2677         estimate D2E/DX2                !
 ! A96   A(39,38,40)           109.1118         estimate D2E/DX2                !
 ! A97   A(39,38,62)           109.0349         estimate D2E/DX2                !
 ! A98   A(40,38,62)           111.2765         estimate D2E/DX2                !
 ! A99   A(38,39,60)           108.7395         estimate D2E/DX2                !
 ! A100  A(38,39,61)           110.6502         estimate D2E/DX2                !
 ! A101  A(38,39,68)           110.104          estimate D2E/DX2                !
 ! A102  A(60,39,61)           106.7063         estimate D2E/DX2                !
 ! A103  A(60,39,68)           112.111          estimate D2E/DX2                !
 ! A104  A(61,39,68)           108.4869         estimate D2E/DX2                !
 ! A105  A(38,40,41)           120.3377         estimate D2E/DX2                !
 ! A106  A(38,40,42)           117.9894         estimate D2E/DX2                !
 ! A107  A(41,40,42)           121.6711         estimate D2E/DX2                !
 ! A108  A(40,42,43)           127.8822         estimate D2E/DX2                !
 ! A109  A(40,42,66)           115.4641         estimate D2E/DX2                !
 ! A110  A(43,42,66)           114.5227         estimate D2E/DX2                !
 ! A111  A(42,43,44)           108.0431         estimate D2E/DX2                !
 ! A112  A(42,43,64)           111.9292         estimate D2E/DX2                !
 ! A113  A(42,43,65)           112.2395         estimate D2E/DX2                !
 ! A114  A(44,43,64)           107.8325         estimate D2E/DX2                !
 ! A115  A(44,43,65)           108.8929         estimate D2E/DX2                !
 ! A116  A(64,43,65)           107.78           estimate D2E/DX2                !
 ! A117  A(43,44,45)           125.164          estimate D2E/DX2                !
 ! A118  A(43,44,46)           111.4609         estimate D2E/DX2                !
 ! A119  A(45,44,46)           123.3523         estimate D2E/DX2                !
 ! A120  A(44,46,67)           106.3228         estimate D2E/DX2                !
 ! A121  A(1,68,39)            109.9792         estimate D2E/DX2                !
 ! A122  A(20,69,70)           120.2151         estimate D2E/DX2                !
 ! A123  A(20,69,71)           121.6814         estimate D2E/DX2                !
 ! A124  A(70,69,71)           118.1            estimate D2E/DX2                !
 ! A125  A(69,70,72)           122.3881         estimate D2E/DX2                !
 ! A126  A(69,70,73)           117.3025         estimate D2E/DX2                !
 ! A127  A(72,70,73)           120.3082         estimate D2E/DX2                !
 ! A128  A(69,71,74)           118.4467         estimate D2E/DX2                !
 ! A129  A(69,71,79)           122.0191         estimate D2E/DX2                !
 ! A130  A(74,71,79)           119.5242         estimate D2E/DX2                !
 ! A131  A(70,72,75)           118.7647         estimate D2E/DX2                !
 ! A132  A(70,72,76)           120.8995         estimate D2E/DX2                !
 ! A133  A(75,72,76)           120.3358         estimate D2E/DX2                !
 ! A134  A(71,74,75)           121.0016         estimate D2E/DX2                !
 ! A135  A(71,74,77)           118.4983         estimate D2E/DX2                !
 ! A136  A(75,74,77)           120.4789         estimate D2E/DX2                !
 ! A137  A(72,75,74)           121.105          estimate D2E/DX2                !
 ! A138  A(72,75,78)           119.5655         estimate D2E/DX2                !
 ! A139  A(74,75,78)           119.3087         estimate D2E/DX2                !
 ! A140  A(71,79,80)           118.5905         estimate D2E/DX2                !
 ! A141  A(71,79,81)           116.2665         estimate D2E/DX2                !
 ! A142  A(80,79,81)           111.5805         estimate D2E/DX2                !
 ! A143  A(9,82,83)            110.9181         estimate D2E/DX2                !
 ! A144  A(9,82,84)            109.7026         estimate D2E/DX2                !
 ! A145  A(9,82,85)            110.6695         estimate D2E/DX2                !
 ! A146  A(83,82,84)           108.1578         estimate D2E/DX2                !
 ! A147  A(83,82,85)           108.6709         estimate D2E/DX2                !
 ! A148  A(84,82,85)           108.6531         estimate D2E/DX2                !
 ! A149  A(2,86,9)             121.5488         estimate D2E/DX2                !
 ! D1    D(20,1,2,3)           -67.5668         estimate D2E/DX2                !
 ! D2    D(20,1,2,6)           173.3413         estimate D2E/DX2                !
 ! D3    D(20,1,2,86)           62.8105         estimate D2E/DX2                !
 ! D4    D(68,1,2,3)           141.4318         estimate D2E/DX2                !
 ! D5    D(68,1,2,6)            22.3398         estimate D2E/DX2                !
 ! D6    D(68,1,2,86)          -88.191          estimate D2E/DX2                !
 ! D7    D(2,1,20,69)           68.9725         estimate D2E/DX2                !
 ! D8    D(68,1,20,69)        -123.8031         estimate D2E/DX2                !
 ! D9    D(2,1,68,39)          161.6991         estimate D2E/DX2                !
 ! D10   D(20,1,68,39)          10.5644         estimate D2E/DX2                !
 ! D11   D(1,2,3,4)           -176.6869         estimate D2E/DX2                !
 ! D12   D(1,2,3,5)             67.6951         estimate D2E/DX2                !
 ! D13   D(1,2,3,16)           -53.1334         estimate D2E/DX2                !
 ! D14   D(6,2,3,4)            -57.7909         estimate D2E/DX2                !
 ! D15   D(6,2,3,5)           -173.4089         estimate D2E/DX2                !
 ! D16   D(6,2,3,16)            65.7626         estimate D2E/DX2                !
 ! D17   D(86,2,3,4)            47.7745         estimate D2E/DX2                !
 ! D18   D(86,2,3,5)           -67.8436         estimate D2E/DX2                !
 ! D19   D(86,2,3,16)          171.3279         estimate D2E/DX2                !
 ! D20   D(1,2,6,7)             53.0922         estimate D2E/DX2                !
 ! D21   D(1,2,6,8)            -59.459          estimate D2E/DX2                !
 ! D22   D(1,2,6,12)           178.2742         estimate D2E/DX2                !
 ! D23   D(3,2,6,7)            -73.2508         estimate D2E/DX2                !
 ! D24   D(3,2,6,8)            174.198          estimate D2E/DX2                !
 ! D25   D(3,2,6,12)            51.9312         estimate D2E/DX2                !
 ! D26   D(86,2,6,7)           176.2462         estimate D2E/DX2                !
 ! D27   D(86,2,6,8)            63.695          estimate D2E/DX2                !
 ! D28   D(86,2,6,12)          -58.5719         estimate D2E/DX2                !
 ! D29   D(1,2,86,9)           -55.7474         estimate D2E/DX2                !
 ! D30   D(3,2,86,9)            79.6358         estimate D2E/DX2                !
 ! D31   D(6,2,86,9)          -169.8958         estimate D2E/DX2                !
 ! D32   D(2,3,16,17)           55.8634         estimate D2E/DX2                !
 ! D33   D(2,3,16,18)          175.327          estimate D2E/DX2                !
 ! D34   D(2,3,16,19)          -64.7544         estimate D2E/DX2                !
 ! D35   D(4,3,16,17)          177.1956         estimate D2E/DX2                !
 ! D36   D(4,3,16,18)          -63.3408         estimate D2E/DX2                !
 ! D37   D(4,3,16,19)           56.5778         estimate D2E/DX2                !
 ! D38   D(5,3,16,17)          -63.4422         estimate D2E/DX2                !
 ! D39   D(5,3,16,18)           56.0214         estimate D2E/DX2                !
 ! D40   D(5,3,16,19)          175.94           estimate D2E/DX2                !
 ! D41   D(2,6,12,13)          175.6183         estimate D2E/DX2                !
 ! D42   D(2,6,12,14)          -65.1701         estimate D2E/DX2                !
 ! D43   D(2,6,12,15)           56.1111         estimate D2E/DX2                !
 ! D44   D(7,6,12,13)          -61.778          estimate D2E/DX2                !
 ! D45   D(7,6,12,14)           57.4336         estimate D2E/DX2                !
 ! D46   D(7,6,12,15)          178.7149         estimate D2E/DX2                !
 ! D47   D(8,6,12,13)           55.9014         estimate D2E/DX2                !
 ! D48   D(8,6,12,14)          175.113          estimate D2E/DX2                !
 ! D49   D(8,6,12,15)          -63.6057         estimate D2E/DX2                !
 ! D50   D(10,9,82,83)         -59.8755         estimate D2E/DX2                !
 ! D51   D(10,9,82,84)          59.547          estimate D2E/DX2                !
 ! D52   D(10,9,82,85)         179.4277         estimate D2E/DX2                !
 ! D53   D(11,9,82,83)         178.5598         estimate D2E/DX2                !
 ! D54   D(11,9,82,84)         -62.0177         estimate D2E/DX2                !
 ! D55   D(11,9,82,85)          57.863          estimate D2E/DX2                !
 ! D56   D(86,9,82,83)          58.5806         estimate D2E/DX2                !
 ! D57   D(86,9,82,84)         178.0031         estimate D2E/DX2                !
 ! D58   D(86,9,82,85)         -62.1162         estimate D2E/DX2                !
 ! D59   D(10,9,86,2)          -80.0706         estimate D2E/DX2                !
 ! D60   D(11,9,86,2)           37.8417         estimate D2E/DX2                !
 ! D61   D(82,9,86,2)          159.5285         estimate D2E/DX2                !
 ! D62   D(1,20,69,70)        -100.3237         estimate D2E/DX2                !
 ! D63   D(1,20,69,71)          78.9858         estimate D2E/DX2                !
 ! D64   D(51,21,22,23)         42.024          estimate D2E/DX2                !
 ! D65   D(51,21,22,25)        -78.515          estimate D2E/DX2                !
 ! D66   D(51,21,22,50)        165.08           estimate D2E/DX2                !
 ! D67   D(52,21,22,23)        -72.2275         estimate D2E/DX2                !
 ! D68   D(52,21,22,25)        167.2336         estimate D2E/DX2                !
 ! D69   D(52,21,22,50)         50.8286         estimate D2E/DX2                !
 ! D70   D(21,22,23,24)        -42.6713         estimate D2E/DX2                !
 ! D71   D(21,22,23,27)        132.9231         estimate D2E/DX2                !
 ! D72   D(25,22,23,24)         76.3565         estimate D2E/DX2                !
 ! D73   D(25,22,23,27)       -108.0491         estimate D2E/DX2                !
 ! D74   D(50,22,23,24)       -163.8734         estimate D2E/DX2                !
 ! D75   D(50,22,23,27)         11.721          estimate D2E/DX2                !
 ! D76   D(21,22,25,26)        177.7076         estimate D2E/DX2                !
 ! D77   D(21,22,25,47)        -57.2174         estimate D2E/DX2                !
 ! D78   D(21,22,25,48)         59.7256         estimate D2E/DX2                !
 ! D79   D(23,22,25,26)         56.2816         estimate D2E/DX2                !
 ! D80   D(23,22,25,47)       -178.6434         estimate D2E/DX2                !
 ! D81   D(23,22,25,48)        -61.7004         estimate D2E/DX2                !
 ! D82   D(50,22,25,26)        -65.6426         estimate D2E/DX2                !
 ! D83   D(50,22,25,47)         59.4325         estimate D2E/DX2                !
 ! D84   D(50,22,25,48)        176.3754         estimate D2E/DX2                !
 ! D85   D(22,23,27,28)         13.0454         estimate D2E/DX2                !
 ! D86   D(22,23,27,55)        178.9719         estimate D2E/DX2                !
 ! D87   D(24,23,27,28)       -171.3862         estimate D2E/DX2                !
 ! D88   D(24,23,27,55)         -5.4598         estimate D2E/DX2                !
 ! D89   D(22,25,26,49)         53.2798         estimate D2E/DX2                !
 ! D90   D(47,25,26,49)        -69.5494         estimate D2E/DX2                !
 ! D91   D(48,25,26,49)        172.6468         estimate D2E/DX2                !
 ! D92   D(23,27,28,29)         77.6918         estimate D2E/DX2                !
 ! D93   D(23,27,28,53)        -41.3297         estimate D2E/DX2                !
 ! D94   D(23,27,28,54)       -158.7865         estimate D2E/DX2                !
 ! D95   D(55,27,28,29)        -87.7922         estimate D2E/DX2                !
 ! D96   D(55,27,28,53)        153.1862         estimate D2E/DX2                !
 ! D97   D(55,27,28,54)         35.7294         estimate D2E/DX2                !
 ! D98   D(27,28,29,30)       -111.087          estimate D2E/DX2                !
 ! D99   D(27,28,29,31)         69.8298         estimate D2E/DX2                !
 ! D100  D(53,28,29,30)         10.7817         estimate D2E/DX2                !
 ! D101  D(53,28,29,31)       -168.3014         estimate D2E/DX2                !
 ! D102  D(54,28,29,30)        126.4261         estimate D2E/DX2                !
 ! D103  D(54,28,29,31)        -52.6571         estimate D2E/DX2                !
 ! D104  D(28,29,31,32)         -3.5971         estimate D2E/DX2                !
 ! D105  D(28,29,31,59)        176.6817         estimate D2E/DX2                !
 ! D106  D(30,29,31,32)        177.3517         estimate D2E/DX2                !
 ! D107  D(30,29,31,59)         -2.3694         estimate D2E/DX2                !
 ! D108  D(29,31,32,33)        -78.7847         estimate D2E/DX2                !
 ! D109  D(29,31,32,35)        153.5282         estimate D2E/DX2                !
 ! D110  D(29,31,32,58)         36.7377         estimate D2E/DX2                !
 ! D111  D(59,31,32,33)        100.9386         estimate D2E/DX2                !
 ! D112  D(59,31,32,35)        -26.7485         estimate D2E/DX2                !
 ! D113  D(59,31,32,58)       -143.539          estimate D2E/DX2                !
 ! D114  D(31,32,33,34)        140.1452         estimate D2E/DX2                !
 ! D115  D(31,32,33,37)        -41.7111         estimate D2E/DX2                !
 ! D116  D(35,32,33,34)        -91.451          estimate D2E/DX2                !
 ! D117  D(35,32,33,37)         86.6927         estimate D2E/DX2                !
 ! D118  D(58,32,33,34)         21.0286         estimate D2E/DX2                !
 ! D119  D(58,32,33,37)       -160.8278         estimate D2E/DX2                !
 ! D120  D(31,32,35,36)         30.6815         estimate D2E/DX2                !
 ! D121  D(31,32,35,56)        -84.2172         estimate D2E/DX2                !
 ! D122  D(31,32,35,57)        159.9789         estimate D2E/DX2                !
 ! D123  D(33,32,35,36)        -99.266          estimate D2E/DX2                !
 ! D124  D(33,32,35,56)        145.8353         estimate D2E/DX2                !
 ! D125  D(33,32,35,57)         30.0314         estimate D2E/DX2                !
 ! D126  D(58,32,35,36)        149.8069         estimate D2E/DX2                !
 ! D127  D(58,32,35,56)         34.9082         estimate D2E/DX2                !
 ! D128  D(58,32,35,57)        -80.8957         estimate D2E/DX2                !
 ! D129  D(32,33,37,38)       -156.6543         estimate D2E/DX2                !
 ! D130  D(32,33,37,63)          4.3738         estimate D2E/DX2                !
 ! D131  D(34,33,37,38)         21.4079         estimate D2E/DX2                !
 ! D132  D(34,33,37,63)       -177.564          estimate D2E/DX2                !
 ! D133  D(33,37,38,39)        115.5563         estimate D2E/DX2                !
 ! D134  D(33,37,38,40)       -122.8701         estimate D2E/DX2                !
 ! D135  D(33,37,38,62)         -3.4565         estimate D2E/DX2                !
 ! D136  D(63,37,38,39)        -45.4262         estimate D2E/DX2                !
 ! D137  D(63,37,38,40)         76.1473         estimate D2E/DX2                !
 ! D138  D(63,37,38,62)       -164.439          estimate D2E/DX2                !
 ! D139  D(37,38,39,60)       -162.2026         estimate D2E/DX2                !
 ! D140  D(37,38,39,61)         80.9089         estimate D2E/DX2                !
 ! D141  D(37,38,39,68)        -39.0113         estimate D2E/DX2                !
 ! D142  D(40,38,39,60)         76.3373         estimate D2E/DX2                !
 ! D143  D(40,38,39,61)        -40.5512         estimate D2E/DX2                !
 ! D144  D(40,38,39,68)       -160.4714         estimate D2E/DX2                !
 ! D145  D(62,38,39,60)        -45.3847         estimate D2E/DX2                !
 ! D146  D(62,38,39,61)       -162.2733         estimate D2E/DX2                !
 ! D147  D(62,38,39,68)         77.8066         estimate D2E/DX2                !
 ! D148  D(37,38,40,41)        -77.0786         estimate D2E/DX2                !
 ! D149  D(37,38,40,42)        103.3999         estimate D2E/DX2                !
 ! D150  D(39,38,40,41)         46.965          estimate D2E/DX2                !
 ! D151  D(39,38,40,42)       -132.5565         estimate D2E/DX2                !
 ! D152  D(62,38,40,41)        167.3197         estimate D2E/DX2                !
 ! D153  D(62,38,40,42)        -12.2018         estimate D2E/DX2                !
 ! D154  D(38,39,68,1)         109.9939         estimate D2E/DX2                !
 ! D155  D(60,39,68,1)        -128.8094         estimate D2E/DX2                !
 ! D156  D(61,39,68,1)         -11.2282         estimate D2E/DX2                !
 ! D157  D(38,40,42,43)        -12.011          estimate D2E/DX2                !
 ! D158  D(38,40,42,66)       -174.3613         estimate D2E/DX2                !
 ! D159  D(41,40,42,43)        168.4743         estimate D2E/DX2                !
 ! D160  D(41,40,42,66)          6.124          estimate D2E/DX2                !
 ! D161  D(40,42,43,44)       -158.8141         estimate D2E/DX2                !
 ! D162  D(40,42,43,64)         82.609          estimate D2E/DX2                !
 ! D163  D(40,42,43,65)        -38.7403         estimate D2E/DX2                !
 ! D164  D(66,42,43,44)          3.6753         estimate D2E/DX2                !
 ! D165  D(66,42,43,64)       -114.9017         estimate D2E/DX2                !
 ! D166  D(66,42,43,65)        123.7491         estimate D2E/DX2                !
 ! D167  D(42,43,44,45)         -5.9801         estimate D2E/DX2                !
 ! D168  D(42,43,44,46)        175.7131         estimate D2E/DX2                !
 ! D169  D(64,43,44,45)        115.1773         estimate D2E/DX2                !
 ! D170  D(64,43,44,46)        -63.1296         estimate D2E/DX2                !
 ! D171  D(65,43,44,45)       -128.1346         estimate D2E/DX2                !
 ! D172  D(65,43,44,46)         53.5586         estimate D2E/DX2                !
 ! D173  D(43,44,46,67)        179.5691         estimate D2E/DX2                !
 ! D174  D(45,44,46,67)          1.2262         estimate D2E/DX2                !
 ! D175  D(20,69,70,72)        176.0505         estimate D2E/DX2                !
 ! D176  D(20,69,70,73)         -4.3378         estimate D2E/DX2                !
 ! D177  D(71,69,70,72)         -3.2834         estimate D2E/DX2                !
 ! D178  D(71,69,70,73)        176.3283         estimate D2E/DX2                !
 ! D179  D(20,69,71,74)       -174.2516         estimate D2E/DX2                !
 ! D180  D(20,69,71,79)          4.5887         estimate D2E/DX2                !
 ! D181  D(70,69,71,74)          5.072          estimate D2E/DX2                !
 ! D182  D(70,69,71,79)       -176.0877         estimate D2E/DX2                !
 ! D183  D(69,70,72,75)         -0.4713         estimate D2E/DX2                !
 ! D184  D(69,70,72,76)        179.5951         estimate D2E/DX2                !
 ! D185  D(73,70,72,75)        179.9284         estimate D2E/DX2                !
 ! D186  D(73,70,72,76)         -0.0052         estimate D2E/DX2                !
 ! D187  D(69,71,74,75)         -3.2844         estimate D2E/DX2                !
 ! D188  D(69,71,74,77)        178.3824         estimate D2E/DX2                !
 ! D189  D(79,71,74,75)        177.8455         estimate D2E/DX2                !
 ! D190  D(79,71,74,77)         -0.4877         estimate D2E/DX2                !
 ! D191  D(69,71,79,80)         30.6656         estimate D2E/DX2                !
 ! D192  D(69,71,79,81)        168.0639         estimate D2E/DX2                !
 ! D193  D(74,71,79,80)       -150.5062         estimate D2E/DX2                !
 ! D194  D(74,71,79,81)        -13.1079         estimate D2E/DX2                !
 ! D195  D(70,72,75,74)          2.4502         estimate D2E/DX2                !
 ! D196  D(70,72,75,78)       -179.2186         estimate D2E/DX2                !
 ! D197  D(76,72,75,74)       -177.6158         estimate D2E/DX2                !
 ! D198  D(76,72,75,78)          0.7154         estimate D2E/DX2                !
 ! D199  D(71,74,75,72)         -0.5184         estimate D2E/DX2                !
 ! D200  D(71,74,75,78)       -178.8538         estimate D2E/DX2                !
 ! D201  D(77,74,75,72)        177.7819         estimate D2E/DX2                !
 ! D202  D(77,74,75,78)         -0.5535         estimate D2E/DX2                !
 --------------------------------------------------------------------------------
 Trust Radius=3.00D-01 FncErr=1.00D-07 GrdErr=1.00D-06
 Number of steps in this run=    447 maximum allowed number of steps=    516.
 GradGradGradGradGradGradGradGradGradGradGradGradGradGradGradGradGradGrad

 Stoichiometry    C25H42AuN6O8PS2Se
 Framework group  C1[X(C25H42AuN6O8PS2Se)]
 Deg. of freedom   252
 Full point group                 C1      NOp   1
 Largest Abelian subgroup         C1      NOp   1
 Largest concise Abelian subgroup C1      NOp   1
                         Standard orientation:                         
 ---------------------------------------------------------------------
 Center     Atomic      Atomic             Coordinates (Angstroms)
 Number     Number       Type             X           Y           Z
 ---------------------------------------------------------------------
      1         79           0       -2.400080   -0.840763    0.038880
      2         15           0       -4.531009    0.173014    0.447012
      3          6           0       -4.607267    2.009542    0.535247
      4          1           0       -5.640287    2.286426    0.785790
      5          1           0       -4.392823    2.388473   -0.472415
      6          6           0       -5.086880   -0.450912    2.084976
      7          1           0       -4.273719   -0.250949    2.795489
      8          1           0       -5.137668   -1.542023    1.983681
      9          6           0       -5.762719   -0.234250   -1.918967
     10          1           0       -5.967055    0.801953   -2.217775
     11          1           0       -4.752695   -0.505993   -2.263127
     12          6           0       -6.435841    0.104304    2.586188
     13          1           0       -6.708734   -0.388701    3.527978
     14          1           0       -6.380101    1.182949    2.776479
     15          1           0       -7.233498   -0.081771    1.858309
     16          6           0       -3.603972    2.606639    1.537234
     17          1           0       -2.575755    2.283445    1.307839
     18          1           0       -3.636295    3.699796    1.486296
     19          1           0       -3.823831    2.311859    2.566788
     20         16           0       -1.897089   -0.104668   -2.395499
     21          7           0        6.865239    2.887364   -0.281084
     22          6           0        5.489491    2.690058    0.185299
     23          6           0        5.261839    1.249514    0.665809
     24          8           0        5.721671    0.317360    0.009229
     25          6           0        4.549473    3.006655   -0.998488
     26          8           0        3.169521    2.806902   -0.705910
     27          7           0        4.632269    0.999104    1.860249
     28          6           0        3.876694    1.912347    2.705098
     29          6           0        2.435744    2.222131    2.220688
     30          8           0        2.169675    3.361917    1.803486
     31          7           0        1.509555    1.240112    2.287450
     32          6           0        1.677922   -0.141930    2.697978
     33          6           0        2.296302   -1.068222    1.631838
     34          8           0        3.122269   -1.920855    1.984290
     35          6           0        0.351684   -0.755809    3.263606
     36         16           0       -1.350136   -0.183624    2.639497
     37          7           0        1.874854   -0.931210    0.348274
     38          6           0        1.990428   -2.028574   -0.613574
     39          6           0        0.610531   -2.555581   -1.114005
     40          6           0        2.815909   -1.547665   -1.823326
     41          8           0        2.304120   -0.822516   -2.676750
     42          7           0        4.102902   -1.954737   -1.916071
     43          6           0        4.909024   -2.607853   -0.896098
     44          6           0        6.367009   -2.396686   -1.244374
     45          8           0        6.775909   -1.873507   -2.266446
     46          8           0        7.178344   -2.895766   -0.292257
     47          1           0        4.757260    4.034261   -1.330531
     48          1           0        4.787158    2.328534   -1.823481
     49          1           0        2.925613    3.303336    0.103567
     50          1           0        5.288613    3.412731    0.976880
     51          1           0        7.111581    2.057875   -0.826794
     52          1           0        7.502785    2.896362    0.513257
     53          1           0        4.375655    2.882270    2.759496
     54          1           0        3.850722    1.496089    3.717607
     55          1           0        4.529504    0.007668    2.053672
     56          1           0        0.321137   -0.450505    4.340572
     57          1           0        0.444833   -1.870006    3.208637
     58          1           0        2.400716   -0.193259    3.522228
     59          1           0        0.548989    1.501197    2.005347
     60          1           0        0.753212   -3.550609   -1.561024
     61          1           0        0.214816   -1.911043   -1.902196
     62          1           0        2.502322   -2.826527   -0.078039
     63          1           0        1.218597   -0.175131    0.139376
     64          1           0        4.724862   -3.693451   -0.858778
     65          1           0        4.721555   -2.203627    0.100026
     66          1           0        4.636579   -1.545406   -2.677004
     67          1           0        8.090932   -2.726825   -0.593444
     68         34           0       -0.681160   -2.589004    0.372818
     69          6           0       -1.632949    1.600323   -2.210206
     70          6           0       -2.664963    2.523266   -2.532306
     71          6           0       -0.379999    2.125152   -1.716200
     72          6           0       -2.532425    3.881532   -2.327292
     73          1           0       -3.582584    2.118169   -2.961673
     74          6           0       -0.279644    3.521467   -1.474014
     75          6           0       -1.328410    4.371570   -1.766792
     76          1           0       -3.332539    4.564317   -2.587787
     77          1           0        0.649826    3.911782   -1.078816
     78          1           0       -1.215027    5.437760   -1.587869
     79          7           0        0.687933    1.320737   -1.457554
     80          1           0        0.807436    0.469365   -2.015931
     81          1           0        1.585592    1.794754   -1.293848
     82          6           0       -6.813993   -1.177405   -2.460887
     83          1           0       -7.805604   -0.910068   -2.090591
     84          1           0       -6.831582   -1.121646   -3.554192
     85          1           0       -6.595877   -2.211060   -2.165797
     86          8           0       -5.804682   -0.303053   -0.472900
 ---------------------------------------------------------------------
 Rotational constants (GHZ):      0.0923120      0.0358543      0.0334510
 General basis read from cards:  (5D, 7F)
 ======================================================================================================
                                       Pseudopotential Parameters
 ======================================================================================================
  Center     Atomic      Valence      Angular      Power
  Number     Number     Electrons     Momentum     of R      Exponent        Coefficient   SO-Coeffient
 ======================================================================================================
    1         79           19
                                      G and up 
                                                     1      622.6287956      -60.00000000    0.00000000
                                                     2      136.2843607     -555.52923120    0.00000000
                                                     2       33.1549781     -168.00197850    0.00000000
                                                     2        9.9894895      -63.03998750    0.00000000
                                                     2        3.0481312       -4.25166810    0.00000000
                                      S - G
                                                     0      194.7374304        3.00000000    0.00000000
                                                     1      351.5327447       38.60208800    0.00000000
                                                     2      122.3270402      864.83707270    0.00000000
                                                     2       32.0914617      374.99355200    0.00000000
                                                     2        5.2451812      289.79101000    0.00000000
                                                     2        4.4916223     -152.45327730    0.00000000
                                      P - G
                                                     0      420.6158801        2.00000000    0.00000000
                                                     1      109.4417815       73.88856250    0.00000000
                                                     2       34.1714280      326.67298720    0.00000000
                                                     2        5.9879750      126.58145910    0.00000000
                                      D - G
                                                     0      219.2666158        3.00000000    0.00000000
                                                     1      122.7297786       55.67931490    0.00000000
                                                     2       63.1063369      449.19873350    0.00000000
                                                     2       18.3684520      215.02690910    0.00000000
                                                     2        4.4972844       64.08409950    0.00000000
                                      F - G
                                                     0      108.5506037        4.00000000    0.00000000
                                                     1       56.4795527       51.80653350    0.00000000
                                                     2       29.2069159      231.21831130    0.00000000
                                                     2        9.5440543      119.00473860    0.00000000
                                                     2        2.8965118       15.34241880    0.00000000
    2         15
                                   No pseudopotential on this center.
    3          6
                                   No pseudopotential on this center.
    4          1
                                   No pseudopotential on this center.
    5          1
                                   No pseudopotential on this center.
    6          6
                                   No pseudopotential on this center.
    7          1
                                   No pseudopotential on this center.
    8          1
                                   No pseudopotential on this center.
    9          6
                                   No pseudopotential on this center.
   10          1
                                   No pseudopotential on this center.
   11          1
                                   No pseudopotential on this center.
   12          6
                                   No pseudopotential on this center.
   13          1
                                   No pseudopotential on this center.
   14          1
                                   No pseudopotential on this center.
   15          1
                                   No pseudopotential on this center.
   16          6
                                   No pseudopotential on this center.
   17          1
                                   No pseudopotential on this center.
   18          1
                                   No pseudopotential on this center.
   19          1
                                   No pseudopotential on this center.
   20         16
                                   No pseudopotential on this center.
   21          7
                                   No pseudopotential on this center.
   22          6
                                   No pseudopotential on this center.
   23          6
                                   No pseudopotential on this center.
   24          8
                                   No pseudopotential on this center.
   25          6
                                   No pseudopotential on this center.
   26          8
                                   No pseudopotential on this center.
   27          7
                                   No pseudopotential on this center.
   28          6
                                   No pseudopotential on this center.
   29          6
                                   No pseudopotential on this center.
   30          8
                                   No pseudopotential on this center.
   31          7
                                   No pseudopotential on this center.
   32          6
                                   No pseudopotential on this center.
   33          6
                                   No pseudopotential on this center.
   34          8
                                   No pseudopotential on this center.
   35          6
                                   No pseudopotential on this center.
   36         16
                                   No pseudopotential on this center.
   37          7
                                   No pseudopotential on this center.
   38          6
                                   No pseudopotential on this center.
   39          6
                                   No pseudopotential on this center.
   40          6
                                   No pseudopotential on this center.
   41          8
                                   No pseudopotential on this center.
   42          7
                                   No pseudopotential on this center.
   43          6
                                   No pseudopotential on this center.
   44          6
                                   No pseudopotential on this center.
   45          8
                                   No pseudopotential on this center.
   46          8
                                   No pseudopotential on this center.
   47          1
                                   No pseudopotential on this center.
   48          1
                                   No pseudopotential on this center.
   49          1
                                   No pseudopotential on this center.
   50          1
                                   No pseudopotential on this center.
   51          1
                                   No pseudopotential on this center.
   52          1
                                   No pseudopotential on this center.
   53          1
                                   No pseudopotential on this center.
   54          1
                                   No pseudopotential on this center.
   55          1
                                   No pseudopotential on this center.
   56          1
                                   No pseudopotential on this center.
   57          1
                                   No pseudopotential on this center.
   58          1
                                   No pseudopotential on this center.
   59          1
                                   No pseudopotential on this center.
   60          1
                                   No pseudopotential on this center.
   61          1
                                   No pseudopotential on this center.
   62          1
                                   No pseudopotential on this center.
   63          1
                                   No pseudopotential on this center.
   64          1
                                   No pseudopotential on this center.
   65          1
                                   No pseudopotential on this center.
   66          1
                                   No pseudopotential on this center.
   67          1
                                   No pseudopotential on this center.
   68         34
                                   No pseudopotential on this center.
   69          6
                                   No pseudopotential on this center.
   70          6
                                   No pseudopotential on this center.
   71          6
                                   No pseudopotential on this center.
   72          6
                                   No pseudopotential on this center.
   73          1
                                   No pseudopotential on this center.
   74          6
                                   No pseudopotential on this center.
   75          6
                                   No pseudopotential on this center.
   76          1
                                   No pseudopotential on this center.
   77          1
                                   No pseudopotential on this center.
   78          1
                                   No pseudopotential on this center.
   79          7
                                   No pseudopotential on this center.
   80          1
                                   No pseudopotential on this center.
   81          1
                                   No pseudopotential on this center.
   82          6
                                   No pseudopotential on this center.
   83          1
                                   No pseudopotential on this center.
   84          1
                                   No pseudopotential on this center.
   85          1
                                   No pseudopotential on this center.
   86          8
                                   No pseudopotential on this center.
 ======================================================================================================
 There are   804 symmetry adapted cartesian basis functions of A   symmetry.
 There are   754 symmetry adapted basis functions of A   symmetry.
   754 basis functions,  1547 primitive gaussians,   804 cartesian basis functions
   199 alpha electrons      199 beta electrons
       nuclear repulsion energy      8323.4072975395 Hartrees.
 NAtoms=   86 NActive=   86 NUniq=   86 SFac= 1.00D+00 NAtFMM=   60 NAOKFM=T Big=T
 Integral buffers will be    131072 words long.
 Raffenetti 2 integral format.
 Two-electron integral symmetry is turned on.
 One-electron integrals computed using PRISM.
   1 Symmetry operations used in ECPInt.
 ECPInt:  NShTT=   39621 NPrTT=  241455 LenC2=   29197 LenP2D=   89706.
 LDataN:  DoStor=T MaxTD1= 7 Len=  274
 NBasis=   754 RedAO= T EigKep=  4.92D-04  NBF=   754
 NBsUse=   754 1.00D-06 EigRej= -1.00D+00 NBFU=   754
 Defaulting to unpruned grid for atomic number  79.
 ExpMin= 2.79D-02 ExpMax= 5.61D+05 ExpMxC= 5.42D+03 IAcc=3 IRadAn=         5 AccDes= 0.00D+00
 Harris functional with IExCor=  402 and IRadAn=       5 diagonalized for initial guess.
 HarFok:  IExCor=  402 AccDes= 0.00D+00 IRadAn=         5 IDoV= 1 UseB2=F ITyADJ=14
 ICtDFT=  3500011 ScaDFX=  1.000000  1.000000  1.000000  1.000000
 Defaulting to unpruned grid for atomic number  79.
 Defaulting to unpruned grid for atomic number  79.
 Defaulting to unpruned grid for atomic number  79.
 Defaulting to unpruned grid for atomic number  79.
 Defaulting to unpruned grid for atomic number  79.
 Defaulting to unpruned grid for atomic number  79.
 Defaulting to unpruned grid for atomic number  79.
 Defaulting to unpruned grid for atomic number  79.
 Defaulting to unpruned grid for atomic number  79.
 Defaulting to unpruned grid for atomic number  79.
 Defaulting to unpruned grid for atomic number  79.
 Defaulting to unpruned grid for atomic number  79.
 FoFCou: FMM=F IPFlag=           0 FMFlag=      100000 FMFlg1=        2001
         NFxFlg=           0 DoJE=T BraDBF=F KetDBF=T FulRan=T
         wScrn=  0.000000 ICntrl=     500 IOpCl=  0 I1Cent=   200000004 NGrid=           0
         NMat0=    1 NMatS0=      1 NMatT0=    0 NMatD0=    1 NMtDS0=    0 NMtDT0=    0
 Petite list used in FoFCou.
 Requested convergence on RMS density matrix=1.00D-08 within 128 cycles.
 Requested convergence on MAX density matrix=1.00D-06.
 Requested convergence on             energy=1.00D-06.
 No special actions if energy rises.
 Defaulting to unpruned grid for atomic number  79.
 Defaulting to unpruned grid for atomic number  79.
 Defaulting to unpruned grid for atomic number  79.
 Defaulting to unpruned grid for atomic number  79.
 Defaulting to unpruned grid for atomic number  79.
 Defaulting to unpruned grid for atomic number  79.
 Defaulting to unpruned grid for atomic number  79.
 Defaulting to unpruned grid for atomic number  79.
 Defaulting to unpruned grid for atomic number  79.
 Defaulting to unpruned grid for atomic number  79.
 Defaulting to unpruned grid for atomic number  79.
 Defaulting to unpruned grid for atomic number  79.
 EnCoef did     6 forward-backward iterations
 EnCoef did   100 forward-backward iterations
 EnCoef did     5 forward-backward iterations
 SCF Done:  E(RB3LYP) =  -5580.45775595     A.U. after   20 cycles
            NFock= 20  Conv=0.74D-08     -V/T= 2.0181

 **********************************************************************

            Population analysis using the SCF density.

 **********************************************************************

 Orbital symmetries:
       Occupied  (A) (A) (A) (A) (A) (A) (A) (A) (A) (A) (A) (A)
                 (A) (A) (A) (A) (A) (A) (A) (A) (A) (A) (A) (A)
                 (A) (A) (A) (A) (A) (A) (A) (A) (A) (A) (A) (A)
                 (A) (A) (A) (A) (A) (A) (A) (A) (A) (A) (A) (A)
                 (A) (A) (A) (A) (A) (A) (A) (A) (A) (A) (A) (A)
                 (A) (A) (A) (A) (A) (A) (A) (A) (A) (A) (A) (A)
                 (A) (A) (A) (A) (A) (A) (A) (A) (A) (A) (A) (A)
                 (A) (A) (A) (A) (A) (A) (A) (A) (A) (A) (A) (A)
                 (A) (A) (A) (A) (A) (A) (A) (A) (A) (A) (A) (A)
                 (A) (A) (A) (A) (A) (A) (A) (A) (A) (A) (A) (A)
                 (A) (A) (A) (A) (A) (A) (A) (A) (A) (A) (A) (A)
                 (A) (A) (A) (A) (A) (A) (A) (A) (A) (A) (A) (A)
                 (A) (A) (A) (A) (A) (A) (A) (A) (A) (A) (A) (A)
                 (A) (A) (A) (A) (A) (A) (A) (A) (A) (A) (A) (A)
                 (A) (A) (A) (A) (A) (A) (A) (A) (A) (A) (A) (A)
                 (A) (A) (A) (A) (A) (A) (A) (A) (A) (A) (A) (A)
                 (A) (A) (A) (A) (A) (A) (A)
       Virtual   (A) (A) (A) (A) (A) (A) (A) (A) (A) (A) (A) (A)
                 (A) (A) (A) (A) (A) (A) (A) (A) (A) (A) (A) (A)
                 (A) (A) (A) (A) (A) (A) (A) (A) (A) (A) (A) (A)
                 (A) (A) (A) (A) (A) (A) (A) (A) (A) (A) (A) (A)
                 (A) (A) (A) (A) (A) (A) (A) (A) (A) (A) (A) (A)
                 (A) (A) (A) (A) (A) (A) (A) (A) (A) (A) (A) (A)
                 (A) (A) (A) (A) (A) (A) (A) (A) (A) (A) (A) (A)
                 (A) (A) (A) (A) (A) (A) (A) (A) (A) (A) (A) (A)
                 (A) (A) (A) (A) (A) (A) (A) (A) (A) (A) (A) (A)
                 (A) (A) (A) (A) (A) (A) (A) (A) (A) (A) (A) (A)
                 (A) (A) (A) (A) (A) (A) (A) (A) (A) (A) (A) (A)
                 (A) (A) (A) (A) (A) (A) (A) (A) (A) (A) (A) (A)
                 (A) (A) (A) (A) (A) (A) (A) (A) (A) (A) (A) (A)
                 (A) (A) (A) (A) (A) (A) (A) (A) (A) (A) (A) (A)
                 (A) (A) (A) (A) (A) (A) (A) (A) (A) (A) (A) (A)
                 (A) (A) (A) (A) (A) (A) (A) (A) (A) (A) (A) (A)
                 (A) (A) (A) (A) (A) (A) (A) (A) (A) (A) (A) (A)
                 (A) (A) (A) (A) (A) (A) (A) (A) (A) (A) (A) (A)
                 (A) (A) (A) (A) (A) (A) (A) (A) (A) (A) (A) (A)
                 (A) (A) (A) (A) (A) (A) (A) (A) (A) (A) (A) (A)
                 (A) (A) (A) (A) (A) (A) (A) (A) (A) (A) (A) (A)
                 (A) (A) (A) (A) (A) (A) (A) (A) (A) (A) (A) (A)
                 (A) (A) (A) (A) (A) (A) (A) (A) (A) (A) (A) (A)
                 (A) (A) (A) (A) (A) (A) (A) (A) (A) (A) (A) (A)
                 (A) (A) (A) (A) (A) (A) (A) (A) (A) (A) (A) (A)
                 (A) (A) (A) (A) (A) (A) (A) (A) (A) (A) (A) (A)
                 (A) (A) (A) (A) (A) (A) (A) (A) (A) (A) (A) (A)
                 (A) (A) (A) (A) (A) (A) (A) (A) (A) (A) (A) (A)
                 (A) (A) (A) (A) (A) (A) (A) (A) (A) (A) (A) (A)
                 (A) (A) (A) (A) (A) (A) (A) (A) (A) (A) (A) (A)
                 (A) (A) (A) (A) (A) (A) (A) (A) (A) (A) (A) (A)
                 (A) (A) (A) (A) (A) (A) (A) (A) (A) (A) (A) (A)
                 (A) (A) (A) (A) (A) (A) (A) (A) (A) (A) (A) (A)
                 (A) (A) (A) (A) (A) (A) (A) (A) (A) (A) (A) (A)
                 (A) (A) (A) (A) (A) (A) (A) (A) (A) (A) (A) (A)
                 (A) (A) (A) (A) (A) (A) (A) (A) (A) (A) (A) (A)
                 (A) (A) (A) (A) (A) (A) (A) (A) (A) (A) (A) (A)
                 (A) (A) (A) (A) (A) (A) (A) (A) (A) (A) (A) (A)
                 (A) (A) (A) (A) (A) (A) (A) (A) (A) (A) (A) (A)
                 (A) (A) (A) (A) (A) (A) (A) (A) (A) (A) (A) (A)
                 (A) (A) (A) (A) (A) (A) (A) (A) (A) (A) (A) (A)
                 (A) (A) (A) (A) (A) (A) (A) (A) (A) (A) (A) (A)
                 (A) (A) (A) (A) (A) (A) (A) (A) (A) (A) (A) (A)
                 (A) (A) (A) (A) (A) (A) (A) (A) (A) (A) (A) (A)
                 (A) (A) (A) (A) (A) (A) (A) (A) (A) (A) (A) (A)
                 (A) (A) (A) (A) (A) (A) (A) (A) (A) (A) (A) (A)
                 (A) (A) (A)
 The electronic state is 1-A.
 Alpha  occ. eigenvalues -- -453.54189 -88.84918 -88.83834 -77.15731 -57.26113
 Alpha  occ. eigenvalues --  -52.03672 -52.03552 -52.03349 -19.19708 -19.18306
 Alpha  occ. eigenvalues --  -19.14318 -19.14150 -19.13013 -19.12196 -19.11798
 Alpha  occ. eigenvalues --  -19.11094 -14.37389 -14.36631 -14.35773 -14.35229
 Alpha  occ. eigenvalues --  -14.32974 -14.31235 -10.32640 -10.30618 -10.29190
 Alpha  occ. eigenvalues --  -10.28877 -10.28433 -10.24963 -10.24870 -10.24533
 Alpha  occ. eigenvalues --  -10.23830 -10.23156 -10.22975 -10.22484 -10.22287
 Alpha  occ. eigenvalues --  -10.22066 -10.21354 -10.20637 -10.20538 -10.19933
 Alpha  occ. eigenvalues --  -10.19341 -10.19184 -10.19139 -10.18690 -10.18344
 Alpha  occ. eigenvalues --  -10.18337 -10.18092  -7.92174  -7.90986  -7.61144
 Alpha  occ. eigenvalues --   -6.63045  -5.88537  -5.88355  -5.87598  -5.87408
 Alpha  occ. eigenvalues --   -5.87042  -5.86496  -5.74119  -5.73765  -5.73008
 Alpha  occ. eigenvalues --   -4.79427  -4.79092  -4.78932  -4.19703  -2.33946
 Alpha  occ. eigenvalues --   -2.32820  -2.31761  -2.10252  -2.10224  -2.09592
 Alpha  occ. eigenvalues --   -2.09302  -2.09172  -1.11168  -1.05327  -1.05008
 Alpha  occ. eigenvalues --   -1.04039  -1.03941  -1.03227  -1.01982  -1.01554
 Alpha  occ. eigenvalues --   -0.94599  -0.93022  -0.92487  -0.92305  -0.91889
 Alpha  occ. eigenvalues --   -0.88964  -0.84031  -0.81049  -0.79031  -0.77422
 Alpha  occ. eigenvalues --   -0.77295  -0.76988  -0.76779  -0.74953  -0.74450
 Alpha  occ. eigenvalues --   -0.73145  -0.72788  -0.69975  -0.68543  -0.68076
 Alpha  occ. eigenvalues --   -0.67477  -0.65132  -0.64397  -0.63410  -0.62360
 Alpha  occ. eigenvalues --   -0.61686  -0.60810  -0.60556  -0.59978  -0.58755
 Alpha  occ. eigenvalues --   -0.58344  -0.57960  -0.57408  -0.57310  -0.53958
 Alpha  occ. eigenvalues --   -0.52819  -0.51994  -0.51352  -0.51060  -0.50691
 Alpha  occ. eigenvalues --   -0.50645  -0.50340  -0.49866  -0.49665  -0.49602
 Alpha  occ. eigenvalues --   -0.48853  -0.48394  -0.48090  -0.47829  -0.47313
 Alpha  occ. eigenvalues --   -0.46648  -0.46127  -0.45712  -0.45063  -0.44680
 Alpha  occ. eigenvalues --   -0.44286  -0.44118  -0.43806  -0.43694  -0.43321
 Alpha  occ. eigenvalues --   -0.43243  -0.42724  -0.42656  -0.42359  -0.41713
 Alpha  occ. eigenvalues --   -0.41506  -0.41494  -0.41141  -0.40733  -0.40624
 Alpha  occ. eigenvalues --   -0.40413  -0.40090  -0.39934  -0.39670  -0.39431
 Alpha  occ. eigenvalues --   -0.39383  -0.38994  -0.38725  -0.38166  -0.38053
 Alpha  occ. eigenvalues --   -0.37617  -0.37578  -0.37311  -0.37202  -0.36932
 Alpha  occ. eigenvalues --   -0.36767  -0.36571  -0.36254  -0.35429  -0.35225
 Alpha  occ. eigenvalues --   -0.34899  -0.34537  -0.33973  -0.32989  -0.32746
 Alpha  occ. eigenvalues --   -0.32243  -0.32074  -0.31414  -0.31305  -0.30427
 Alpha  occ. eigenvalues --   -0.29925  -0.29291  -0.28671  -0.28577  -0.27728
 Alpha  occ. eigenvalues --   -0.27410  -0.26714  -0.25882  -0.25495  -0.25395
 Alpha  occ. eigenvalues --   -0.25160  -0.24907  -0.24271  -0.24033  -0.22492
 Alpha  occ. eigenvalues --   -0.22081  -0.21782  -0.20865  -0.18648
 Alpha virt. eigenvalues --   -0.13283  -0.01438  -0.01011  -0.00578  -0.00494
 Alpha virt. eigenvalues --   -0.00105   0.00697   0.00926   0.01490   0.02279
 Alpha virt. eigenvalues --    0.02538   0.03592   0.04334   0.04884   0.05986
 Alpha virt. eigenvalues --    0.06756   0.07175   0.07254   0.07489   0.08195
 Alpha virt. eigenvalues --    0.09255   0.09383   0.09856   0.10183   0.10465
 Alpha virt. eigenvalues --    0.10988   0.11313   0.11775   0.11916   0.12615
 Alpha virt. eigenvalues --    0.12987   0.13118   0.13496   0.13799   0.14064
 Alpha virt. eigenvalues --    0.14506   0.14671   0.14854   0.15114   0.15166
 Alpha virt. eigenvalues --    0.15294   0.15770   0.15994   0.16205   0.16300
 Alpha virt. eigenvalues --    0.16573   0.16804   0.17208   0.17320   0.17633
 Alpha virt. eigenvalues --    0.17934   0.17992   0.18486   0.18550   0.18783
 Alpha virt. eigenvalues --    0.19045   0.19392   0.19790   0.19907   0.20157
 Alpha virt. eigenvalues --    0.20296   0.20771   0.20878   0.21253   0.21528
 Alpha virt. eigenvalues --    0.21729   0.22219   0.22323   0.22685   0.22877
 Alpha virt. eigenvalues --    0.23507   0.23902   0.24373   0.24505   0.25007
 Alpha virt. eigenvalues --    0.25142   0.25891   0.26200   0.26351   0.26771
 Alpha virt. eigenvalues --    0.27139   0.27822   0.28590   0.30063   0.30612
 Alpha virt. eigenvalues --    0.31163   0.32435   0.33014   0.33459   0.34161
 Alpha virt. eigenvalues --    0.34778   0.35173   0.35462   0.35996   0.36555
 Alpha virt. eigenvalues --    0.36769   0.37617   0.38669   0.38949   0.39472
 Alpha virt. eigenvalues --    0.40031   0.40485   0.41378   0.41813   0.42188
 Alpha virt. eigenvalues --    0.42721   0.43601   0.43906   0.44396   0.44963
 Alpha virt. eigenvalues --    0.45787   0.46720   0.47138   0.47569   0.48048
 Alpha virt. eigenvalues --    0.48589   0.48769   0.50174   0.51375   0.51575
 Alpha virt. eigenvalues --    0.52143   0.52469   0.52677   0.53186   0.53533
 Alpha virt. eigenvalues --    0.53938   0.54432   0.54625   0.54826   0.55313
 Alpha virt. eigenvalues --    0.55724   0.55847   0.56181   0.56518   0.56739
 Alpha virt. eigenvalues --    0.57164   0.57266   0.57429   0.57867   0.58186
 Alpha virt. eigenvalues --    0.58699   0.59121   0.59410   0.59797   0.59971
 Alpha virt. eigenvalues --    0.60260   0.60426   0.60732   0.61168   0.61476
 Alpha virt. eigenvalues --    0.61921   0.62099   0.62719   0.62899   0.63544
 Alpha virt. eigenvalues --    0.63893   0.64320   0.64605   0.64800   0.65024
 Alpha virt. eigenvalues --    0.65636   0.65881   0.66291   0.66701   0.66968
 Alpha virt. eigenvalues --    0.67696   0.67833   0.68070   0.68351   0.68826
 Alpha virt. eigenvalues --    0.69393   0.69540   0.69824   0.70404   0.71351
 Alpha virt. eigenvalues --    0.71556   0.72126   0.72333   0.72700   0.72985
 Alpha virt. eigenvalues --    0.73718   0.74211   0.75011   0.75296   0.75926
 Alpha virt. eigenvalues --    0.76593   0.76796   0.77319   0.78077   0.78275
 Alpha virt. eigenvalues --    0.78868   0.79455   0.79740   0.79974   0.80307
 Alpha virt. eigenvalues --    0.80608   0.81317   0.81810   0.82069   0.82390
 Alpha virt. eigenvalues --    0.82502   0.83136   0.83621   0.84125   0.84425
 Alpha virt. eigenvalues --    0.84682   0.84866   0.85104   0.85365   0.85680
 Alpha virt. eigenvalues --    0.86204   0.86603   0.86650   0.86770   0.87091
 Alpha virt. eigenvalues --    0.87195   0.87781   0.87856   0.88149   0.88524
 Alpha virt. eigenvalues --    0.88720   0.88988   0.89412   0.89683   0.89807
 Alpha virt. eigenvalues --    0.90233   0.90589   0.90850   0.91049   0.91616
 Alpha virt. eigenvalues --    0.91699   0.91937   0.92089   0.92244   0.92463
 Alpha virt. eigenvalues --    0.93174   0.93527   0.93685   0.93926   0.94386
 Alpha virt. eigenvalues --    0.94596   0.94911   0.95003   0.95661   0.96263
 Alpha virt. eigenvalues --    0.96405   0.96679   0.96770   0.96980   0.97751
 Alpha virt. eigenvalues --    0.98180   0.98328   0.98619   0.98660   0.98830
 Alpha virt. eigenvalues --    0.99930   1.00392   1.00840   1.01520   1.01805
 Alpha virt. eigenvalues --    1.02474   1.02799   1.02917   1.03486   1.04336
 Alpha virt. eigenvalues --    1.04540   1.04731   1.05087   1.05520   1.05863
 Alpha virt. eigenvalues --    1.06004   1.06554   1.08001   1.08049   1.08839
 Alpha virt. eigenvalues --    1.09138   1.09944   1.10164   1.10884   1.11906
 Alpha virt. eigenvalues --    1.12292   1.12885   1.13453   1.14193   1.14351
 Alpha virt. eigenvalues --    1.15989   1.16148   1.16626   1.17017   1.17697
 Alpha virt. eigenvalues --    1.18212   1.18607   1.19006   1.20238   1.21319
 Alpha virt. eigenvalues --    1.22022   1.23191   1.23365   1.24364   1.25554
 Alpha virt. eigenvalues --    1.27196   1.27813   1.28878   1.29575   1.30285
 Alpha virt. eigenvalues --    1.30983   1.32223   1.32686   1.33304   1.34356
 Alpha virt. eigenvalues --    1.35116   1.35569   1.36054   1.36722   1.37644
 Alpha virt. eigenvalues --    1.38338   1.39326   1.39901   1.41059   1.41504
 Alpha virt. eigenvalues --    1.41911   1.43049   1.43387   1.43732   1.44979
 Alpha virt. eigenvalues --    1.45060   1.45843   1.46269   1.46604   1.47774
 Alpha virt. eigenvalues --    1.48672   1.49699   1.50350   1.50445   1.51257
 Alpha virt. eigenvalues --    1.51799   1.52633   1.52864   1.54360   1.54568
 Alpha virt. eigenvalues --    1.55727   1.56189   1.56396   1.57225   1.58881
 Alpha virt. eigenvalues --    1.59681   1.60629   1.60828   1.62048   1.63034
 Alpha virt. eigenvalues --    1.63546   1.64892   1.65476   1.65826   1.67335
 Alpha virt. eigenvalues --    1.68138   1.68415   1.69519   1.70008   1.70407
 Alpha virt. eigenvalues --    1.71114   1.72203   1.73104   1.73783   1.75212
[...]
 0.00000511,-0.00000554,-0.00000013,0.00000096,-0.00000156,-0.00000633,
 -0.00000200,-0.00000053,0.00000363,0.00000190,-0.00000048,0.00000289,0
 .,0.00000117,-0.00000027,0.00000049,-0.00000023,0.00000013,-0.00000041
 ,0.00000009,0.00000156,-0.00000350,0.00000590,-0.00000012,0.,-0.000000
 08,-0.00000005,-0.00000099,0.00000039,-0.00000054,-0.00000036,-0.00000
 005,0.00000070,0.00000051,0.00000020,-0.00000052,-0.00000011,-0.000000
 87,-0.00000199,-0.00000203,-0.00000072,-0.00000217,0.00000220,0.000001
 78,0.00000038,-0.00000010,-0.00000521,0.00000141,0.00000190,0.00000004
 ,-0.00000819,-0.00000754,0.00000018,0.00000035,0.00000208,-0.00000091,
 0.00000612,-0.00000377,-0.00000314,-0.00000052,-0.00000002,-0.00000019
 ,-0.00000247,-0.00001314,0.00000763,-0.00000027,0.00000015,0.00000046,
 -0.00000119,-0.00000087,0.00000040,-0.00000003,-0.00000202,-0.00000031
 ,-0.00000051,-0.00000011,-0.00000037,0.00000525,0.00000770,-0.00000188
 ,0.00004075,-0.00006141,0.00004741,0.00000294,0.00003345,0.00012603,0.
 00003411,-0.00000710,0.00001145,-0.00005504,0.00006555,0.00000700,-0.0
 0002677,-0.00005863,-0.00010400,-0.00002564,0.00000793,-0.00001332,0.0
 0000956,0.00001945,0.00000132,0.00000323,0.00000928,-0.00001112,-0.000
 00308,0.00000287,0.00000083,-0.00000362,-0.00000627,-0.00000428,-0.000
 03757,0.00004205,-0.00004588,0.00000074,-0.00001983,0.00000190,0.00000
 491,0.00000197,0.00000429,-0.05029685,0.00316537,-0.00052889,0.0005065
 8,0.02079794,-0.00954872,-0.00081445,0.00836864,-0.00194892,0.05339298
 ,-0.00000115,-0.00002449,0.00005585,-0.00004875,-0.00003045,0.00000141
 ,0.00007713,0.00000890,0.00007495,0.00000167,0.00001839,0.00003752,0.0
 0004598,0.00002699,-0.00000917,-0.00003819,-0.00003556,-0.00000834,0.0
 0001468,0.00002564,-0.00001567,-0.00003213,0.00001701,-0.00005004,-0.0
 0074884,-0.01350404,0.00543231,-0.00259678,0.00070082,-0.00028433,0.00
 000065,0.00101419,-0.00039459,-0.00001370,0.00002166,-0.00003596,-0.00
 000062,-0.00000605,-0.00001458,0.00002420,0.00002567,0.00002047,0.0000
 0973,-0.00006477,0.00002307,-0.00000117,0.00006990,-0.00002529,-0.0000
 0756,-0.00000751,-0.00000334,0.00001401,0.00000887,0.00001182,-0.00001
 009,-0.00000748,-0.00001324,-0.00013302,-0.00003300,-0.00000359,-0.000
 00316,0.00000054,-0.00000186,0.00000056,-0.00000022,0.00000150,-0.0000
 0139,-0.00000696,0.00000428,-0.00000119,0.00000313,-0.00000258,0.00001
 296,0.00000107,-0.00000120,-0.00001875,0.00000100,-0.00000894,-0.00000
 065,0.00000363,-0.00000418,-0.00000028,0.00000072,0.00000241,0.0000009
 9,-0.00001988,0.00000231,-0.00000565,0.00001351,-0.00000928,0.00000949
 ,0.00001033,-0.00000362,0.00000420,-0.00000454,0.00000434,0.00000456,-
 0.00000616,0.00001498,-0.00000607,0.00000730,-0.00000618,0.00000087,0.
 00001022,-0.00002735,-0.00000082,-0.00000031,-0.00004553,-0.00000029,0
 .00001065,-0.00001338,0.00000212,0.00000315,-0.00000826,-0.00000382,0.
 00000955,0.00001460,0.00002090,-0.00002086,0.00001920,-0.00001760,0.00
 002270,-0.00000873,-0.00001387,0.00000765,-0.00000182,0.00000212,-0.00
 000477,0.00000212,0.00000495,-0.00000349,0.00000402,-0.00000207,0.0000
 0276,-0.00000218,-0.00000451,0.00000262,-0.00000307,-0.00000122,-0.000
 00008,0.,0.00000024,-0.00000039,0.00000026,0.00000132,-0.00000444,0.00
 000788,-0.00000012,-0.00000013,-0.00000027,0.00000072,-0.00000059,0.00
 000050,-0.00000068,0.00000076,-0.00000017,0.00000041,-0.00000018,0.000
 00060,-0.00000037,0.00000087,-0.00000065,0.00000065,-0.00000086,0.0000
 0071,-0.00001018,0.00000115,0.00000081,-0.00000123,-0.00000329,0.00000
 322,-0.00000009,0.00000085,-0.00000077,-0.00000413,-0.00000516,0.00000
 209,-0.00000355,0.00000028,-0.00000053,0.00001495,-0.00000784,-0.00000
 444,-0.00000165,-0.00000043,-0.00000052,0.00000361,-0.00001267,0.00001
 189,-0.00000073,0.00000137,-0.00000017,-0.00000059,-0.00000005,-0.0000
 0045,0.00000210,-0.00000108,-0.00000104,0.00000075,-0.00000100,0.00000
 032,-0.00000222,0.00000355,0.00000399,0.00001207,-0.00001877,0.0000103
 4,0.00001100,0.00002213,0.00009834,0.00003560,-0.00001592,0.00002008,-
 0.00002821,0.00004333,0.00000949,-0.00000922,-0.00004355,-0.00007941,-
 0.00002178,0.00000631,-0.00001273,-0.00000065,0.00001261,-0.00000017,0
 .00000329,0.00001356,-0.00001406,-0.00000351,-0.00000021,-0.00000045,-
 0.00000079,-0.00000491,-0.00000433,-0.00005127,0.00003354,-0.00004972,
 0.00001208,-0.00001622,0.00000139,0.00000905,0.00000161,0.00001155,0.0
 0113996,-0.28586889,0.08654954,-0.00027302,-0.01501302,0.00619817,0.00
 052617,0.00282627,-0.00067898,0.00118455,0.30841815,-0.00000992,0.0000
 4552,0.00005778,-0.00062781,-0.00016734,-0.00007903,0.00012176,0.00000
 723,-0.00000567,0.00000004,-0.00001529,0.00000770,0.00000165,0.0000243
 2,0.00000545,0.00011882,-0.00000037,0.00004656,-0.00001262,0.00002094,
 0.00004034,-0.00002952,0.00001344,-0.00003562,-0.00094146,-0.00406146,
 -0.00053188,-0.00073942,-0.00065324,0.00089458,0.00024987,0.00038741,-
 0.00017249,-0.00000701,0.00000388,-0.00003192,0.00000054,-0.00000275,0
 .00000130,0.00001566,0.00001669,0.00001007,0.00001956,-0.00004310,0.00
 000540,-0.00001134,0.00003913,-0.00001916,-0.00000188,-0.00000394,-0.0
 0000138,0.00001290,0.00001056,0.00000736,-0.00000296,-0.00000590,-0.00
 000178,0.00000770,-0.00001855,0.00002013,0.00000422,0.00000276,-0.0000
 0054,-0.00000217,-0.00000055,-0.00000013,-0.00000809,-0.00000173,0.000
 01201,0.00000690,-0.00000329,-0.00000716,-0.00001208,-0.00000288,0.000
 00276,0.00001520,0.00000252,-0.00000183,0.00000807,0.00000453,-0.00000
 560,-0.00000278,0.00000081,0.00000247,-0.00001505,-0.00000533,-0.00000
 405,0.00001311,0.00000195,0.00000207,0.00001190,0.00000194,-0.00000049
 ,0.00000410,0.00000097,0.00000252,-0.00001378,0.00000919,0.00000490,0.
 00001391,-0.00000854,-0.00000233,-0.00000828,-0.00000289,-0.00002346,-
 0.00000973,0.00001094,-0.00001023,0.00000616,-0.00000400,-0.00000214,-
 0.00000528,0.00000308,0.00000076,-0.00000644,-0.00001113,-0.00001610,-
 0.00001857,0.00000433,0.00000507,0.00001280,-0.00000688,-0.00000480,0.
 00001315,-0.00000373,-0.00000613,-0.00000103,0.00000596,-0.00000103,-0
 .00000918,0.00000093,-0.00000005,0.00000519,-0.00000071,-0.00000133,0.
 00000523,-0.00000235,0.00000104,0.00000113,0.00000117,-0.00000003,0.00
 000079,-0.00000022,-0.00000067,-0.00000519,-0.00000079,0.00000191,-0.0
 0000024,-0.00000057,-0.00000066,-0.00000091,-0.00000120,0.00000058,-0.
 00000009,-0.00000132,0.00000032,0.00000060,0.00000038,-0.00000030,0.00
 000033,-0.00000052,-0.00000055,-0.00000290,-0.00000022,-0.00000099,-0.
 00000174,0.00000231,0.00000135,0.00000712,-0.00000117,0.00000043,0.000
 00279,0.00000101,-0.00000036,-0.00001114,-0.00000037,0.00000049,0.0000
 1286,0.00000599,-0.00000152,0.00000438,0.00000433,0.00000269,0.0000003
 4,-0.00000064,0.00000089,-0.00000364,0.00000407,-0.00000024,0.00000042
 ,-0.00000133,0.00000068,-0.00000137,-0.00000047,0.00000118,-0.00000135
 ,0.00000085,0.00000295,-0.00000125,0.00000142,0.00000043,0.00000471,-0
 .00005462,0.00000447,-0.00002066,0.00004852,-0.00003489,-0.00002063,-0
 .00003046,0.00000022,-0.00001222,-0.00001262,0.00000323,0.00001202,0.0
 0001032,0.00000243,-0.00002170,0.00001058,0.00000104,0.00000022,-0.000
 00872,-0.00000619,-0.00000624,-0.00000655,-0.00000358,-0.00000359,-0.0
 0000767,0.00000365,0.00000010,-0.00000215,0.00000221,0.00000053,0.0000
 0195,0.00000108,0.00001840,-0.00001366,0.00000185,-0.00000385,0.000009
 35,0.00000296,-0.00000508,-0.00000286,-0.00000016,0.00147674,0.0872085
 2,-0.08197556,-0.00105079,-0.01675984,0.00645127,0.00071134,0.03064657
 ,-0.00942100,-0.00040725,-0.09620953,0.08321435,-0.00378286,-0.0059637
 3,-0.00627295,-0.19792083,-0.04483722,-0.06823816,-0.01025634,0.003033
 25,-0.00715495,0.00117017,-0.00056050,-0.00028228,-0.00013003,0.000102
 67,0.00052243,-0.00502608,-0.00110737,-0.00238755,0.00070919,0.0000655
 2,-0.00083630,-0.00001963,0.00046184,-0.00027891,-0.06208358,0.0010736
 9,-0.00919020,-0.00106171,0.00206167,-0.01066965,0.00734106,-0.0037595
 5,0.01374913,-0.00278567,0.00065277,0.00039860,0.00097430,0.00001952,0
 .00062587,0.00022918,0.00005137,0.00009809,0.00201078,0.00008909,0.000
 42230,0.00171199,-0.00447026,0.00279941,0.00045122,0.00038909,0.000117
 49,-0.00124915,-0.00035845,-0.00123192,0.00003664,0.00009448,-0.000253
 02,0.00280803,0.00074462,-0.00289968,-0.00012601,-0.00016809,0.0000297
 8,0.00007735,0.00004256,0.00001674,0.00020192,0.00022712,-0.00025379,-
 0.00019247,-0.00010020,0.00009845,0.00029705,0.00014150,-0.00007709,-0
 .00036486,-0.00020533,0.00011550,-0.00028540,-0.00021815,0.00006281,0.
 00006777,0.00000263,0.00001430,0.00054282,0.00074199,0.00017469,-0.000
 25898,-0.00047828,-0.00006099,-0.00051281,-0.00041925,-0.00018600,0.00
 008079,0.00012540,0.00004314,0.00075731,-0.00042339,0.00076191,-0.0006
 1914,0.00025115,-0.00027332,0.00031119,0.00071026,0.00051114,0.0002892
 7,-0.00048352,0.00018231,-0.00062781,-0.00027785,-0.00051559,0.0002101
 6,-0.00001541,0.00051907,0.00052393,0.00067034,0.00065601,0.00081242,0
 .00019374,-0.00073755,-0.00045341,-0.00023154,0.00026357,-0.00061361,-
 0.00005272,0.00032894,0.00004767,-0.00021993,0.00012219,0.00056120,0.0
 0005947,0.00004827,-0.00031466,-0.00005901,0.00003951,-0.00029502,0.00
 006206,-0.00010959,-0.00002843,-0.00006514,-0.00000012,-0.00002041,0.0
 0001776,0.00000659,0.00014127,0.00010848,-0.00011626,0.00001215,0.0000
 0748,0.00000759,0.00003315,0.00006754,-0.00002494,0.00000659,0.0000666
 3,-0.00000338,-0.00002771,-0.00003292,0.00000722,-0.00000426,0.0000376
 4,0.00002889,0.00015809,0.00008689,0.00007234,0.00004472,-0.00012974,-
 0.00015601,-0.00013994,-0.00007292,0.00015296,-0.00006608,-0.00003146,
 -0.00003726,0.00034533,0.00006398,0.00011520,-0.00059919,-0.00037081,0
 .00003518,-0.00053253,0.00006777,-0.00019499,0.00004241,-0.00000211,0.
 00000160,0.00027995,0.00030551,-0.00004741,-0.00000085,0.00003709,-0.0
 0003879,0.00006478,0.00004909,-0.00003626,0.00005863,0.00006720,-0.000
 06950,0.00005671,-0.00002685,0.00001423,-0.00044385,0.00292961,0.00037
 614,0.00027511,-0.00154386,0.00093145,-0.00139430,0.00008541,-0.000825
 29,0.00028985,0.00034781,0.00003962,0.00001708,-0.00078868,-0.00027322
 ,0.00002419,0.00031135,0.00060750,0.00034964,0.00007971,0.00028759,0.0
 0025276,-0.00009566,0.00012401,0.00006097,-0.00023322,0.00013383,0.000
 05068,-0.00001287,-0.00005118,0.00000811,-0.00002106,0.00004450,0.0001
 5907,-0.00019124,0.00062635,0.00003769,0.00011332,-0.00015917,0.000152
 20,0.00009659,0.00000008,-0.00933041,-0.00197311,-0.04517357,0.0032515
 1,0.00137207,0.00059226,-0.00813744,-0.00381867,-0.00149634,0.00228990
 ,0.00091701,0.00115495,0.27901952,0.00405251,0.00330884,0.00133006,-0.
 02717373,-0.04301005,-0.01044828,-0.02366201,0.00115443,-0.01344511,0.
 00068817,0.00420542,-0.00046852,0.00042490,0.00119058,0.00027734,-0.00
 111899,0.00105923,-0.00089788,0.00008271,0.00012217,-0.00024332,0.0003
 1484,0.00056757,-0.00090992,0.00124418,-0.05817728,0.00115284,0.005783
 99,0.00940939,0.02867216,-0.00705680,0.00424358,-0.01881276,0.00031655
 ,0.00032783,-0.00049746,-0.00032656,0.00015308,-0.00021191,-0.00003496
 ,0.00030930,0.00035065,-0.00045511,-0.00063226,-0.00038841,0.00142322,
 -0.00652368,0.00444150,-0.00037050,-0.00006690,-0.00009996,-0.00201884
 ,-0.00075067,-0.00167960,0.00013786,0.00006862,-0.00030354,-0.00016188
 ,-0.00033510,0.00087035,-0.00002291,0.00002932,-0.00000254,0.00000346,
 -0.00001408,-0.00001259,0.00003312,-0.00009255,-0.00007584,-0.00002840
 ,0.00010598,0.00007554,0.00011097,0.00000216,-0.00000986,-0.00015297,0
 .00008068,0.00003911,-0.00001545,0.00004602,0.00005157,0.00001450,0.00
 002422,-0.00004166,0.00002173,-0.00095826,0.00000782,-0.00047220,0.000
 62912,-0.00014490,0.00041962,0.00051166,0.00009180,0.00003285,-0.00020
 725,-0.00000072,-0.00013560,0.00009019,-0.00024315,0.00008297,0.000008
 45,0.00010596,-0.00024250,-0.00008435,-0.00002196,0.00013850,0.0000910
 0,0.00036656,0.00013297,0.00013027,0.00015886,-0.00001882,-0.00000472,
 -0.00017341,-0.00013347,0.00010830,0.00000512,-0.00012245,-0.00008313,
 0.00016755,0.00006505,0.00011349,-0.00001660,0.00010511,0.00004806,-0.
 00005108,-0.00000623,0.00002036,-0.00003403,-0.00008934,-0.00004058,-0
 .00001321,0.00005192,0.00003272,-0.00000029,0.00004219,0.00000712,0.00
 002332,-0.00000272,0.00000955,-0.00000755,-0.00001989,-0.00000190,0.00
 001002,0.00015651,-0.00006397,0.00002231,0.00000381,0.00000555,0.00001
 386,-0.00000057,-0.00000841,0.00000094,-0.00000258,-0.00000619,-0.0000
 0343,0.00001811,0.00001187,0.00000473,-0.00002739,0.00000165,-0.000020
 19,-0.00003621,-0.00004547,-0.00000738,0.00002153,0.00000788,0.0000202
 7,0.00002531,0.00003082,-0.00007860,0.00000752,0.00005140,0.00000259,-
 0.00011146,-0.00031672,0.00000449,0.00003925,0.00002004,0.00003323,0.0
 0009054,-0.00002870,0.00003440,-0.00000227,0.00000774,0.00000027,-0.00
 011652,-0.00015629,-0.00000400,-0.00000155,-0.00000032,0.00000996,-0.0
 0001089,-0.00001784,0.00000347,-0.00000767,-0.00003089,-0.00000641,-0.
 00000310,-0.00000748,-0.00000823,-0.00069453,-0.00072977,-0.00009402,-
 0.00000797,0.00019029,0.00000937,0.00024539,-0.00022756,0.00031147,-0.
 00006412,-0.00007224,-0.00017573,-0.00000367,0.00044585,0.00015024,-0.
 00002569,-0.00021484,-0.00008806,-0.00006664,0.00007542,0.00021780,-0.
 00021988,0.00027278,-0.00003923,0.00000036,0.00005870,-0.00006063,0.00
 008872,0.00005279,-0.00005653,0.00001824,0.00003420,-0.00004952,-0.000
 00633,0.00034409,0.00006878,-0.00005508,-0.00016120,0.00006400,0.00003
 231,-0.00003680,-0.00016703,-0.00470131,0.00259949,-0.01637404,0.00009
 877,0.00011002,0.00069750,-0.00309164,-0.00039129,-0.00043367,0.002012
 80,0.00136530,-0.00043293,0.05451632,0.07960419,0.00068977,-0.00050860
 ,0.00024900,-0.06874499,-0.01911893,-0.08575746,-0.00289246,-0.0001490
 8,0.00280019,0.00039347,0.00136776,-0.00059460,-0.00084641,-0.00221319
 ,0.00000630,-0.03280412,-0.00759961,-0.01896405,0.00431149,0.00047966,
 -0.00884101,-0.00016556,-0.00026594,0.00220648,0.00149423,0.00465149,-
 0.17855124,-0.00862773,0.00257317,-0.03440071,-0.01060414,-0.00146228,
 -0.03614222,-0.00080033,0.00058761,0.00145936,-0.00049940,-0.00002386,
 -0.00036442,-0.00004639,-0.00054258,-0.00029658,-0.00089861,-0.0003466
 9,-0.00092924,0.00020303,-0.00067148,0.00102378,-0.00023736,0.00006712
 ,-0.00011445,-0.00057031,-0.00015275,-0.00006382,0.00029568,0.00044159
 ,0.00036989,0.00211142,0.00062681,-0.00006756,-0.00005016,-0.00006671,
 0.00003937,0.00004142,0.00001386,-0.00002415,0.00017683,0.00012375,-0.
 00031331,-0.00013388,0.00002797,0.00018940,0.00008292,0.00005094,-0.00
 003723,-0.00007668,-0.00006121,0.00018794,-0.00016960,-0.00013895,0.00
 016665,0.00006959,-0.00001653,-0.00008860,0.00034561,0.00014957,0.0000
 3149,-0.00034078,-0.00009186,0.00007150,-0.00023062,-0.00005587,0.0001
 0679,-0.00008584,0.00002323,-0.00010119,0.00021075,-0.00010497,-0.0002
 9042,-0.00020814,0.00008569,0.00012298,0.00011362,0.00028339,0.0010383
 2,0.00054965,-0.00047162,0.00098994,-0.00013175,-0.00007535,0.00019434
 ,0.00007230,-0.00005712,0.00010095,0.00011404,0.00003514,0.00032025,0.
 00009171,0.00021128,-0.00034317,0.00000295,-0.00019527,0.00019539,-0.0
 0006922,-0.00003781,0.00013053,-0.00000837,-0.00004870,-0.00000241,0.0
 0013860,0.00002274,-0.00003794,-0.00008391,-0.00002244,0.00004740,-0.0
 0005784,0.00001520,0.00000669,-0.00000289,-0.00002234,-0.00000344,-0.0
 0002447,0.00001013,0.00001006,0.00012822,0.00007004,-0.00016135,0.0000
 0908,0.00001395,0.00002011,0.00000940,0.00003423,-0.00001865,0.0000113
 7,0.00001885,-0.00000463,-0.00001351,-0.00000440,-0.00000165,-0.000009
 95,0.00000229,0.00001461,0.00004645,0.00001079,0.00001632,0.00017948,-
 0.00010982,-0.00007188,-0.00026983,0.00007398,-0.00013749,-0.00005311,
 -0.00001924,0.00000997,0.00027972,-0.00006020,-0.00010877,-0.00019571,
 -0.00006613,0.00000328,-0.00035638,0.00013628,-0.00005680,0.00002137,0
 .00000712,-0.00000766,0.00001534,0.00011766,-0.00013879,0.00000342,0.0
 0000698,-0.00000758,0.00003227,0.00000804,-0.00001541,0.00000065,0.000
 00506,-0.00003829,0.00001825,-0.00001438,-0.00000781,-0.00035751,0.000
 49624,-0.00040158,-0.00008933,-0.00065717,0.00069101,-0.00138445,-0.00
 055863,-0.00115336,0.00004863,0.00036753,0.00001404,0.00040425,-0.0001
 6303,-0.00001331,0.00016897,0.00028869,0.00099095,0.00041678,-0.000103
 90,0.00040019,-0.00018329,-0.00000840,-0.00005910,0.00000026,-0.000183
 30,0.00010167,0.00008820,0.00002862,-0.00005417,0.00004839,0.00006936,
 0.00002567,0.00045993,-0.00001876,0.00063503,-0.00012233,0.00005871,-0
 .00000834,-0.00000767,0.00001591,-0.00019540,-0.01161744,-0.00330180,-
 0.02386075,0.00026677,0.00078196,0.00186617,-0.00350431,-0.00156370,0.
 00085174,0.00087900,-0.00059366,0.00158012,0.13253151,0.02748788,0.373
 56613\\-0.00000958,-0.00002000,0.00001038,0.00002774,0.00001110,-0.000
 00482,0.00000135,-0.00000151,0.00001182,-0.00000291,-0.00000003,-0.000
 00012,-0.00000243,0.00000032,-0.00000138,0.00000122,-0.00000222,0.0000
 0752,-0.00000043,0.00000629,0.00000028,0.00000203,0.00000309,0.0000009
 5,0.00000505,0.00000011,-0.00000056,0.00000012,-0.00000175,0.00000153,
 -0.00000054,0.00000202,0.00000030,-0.00000134,0.00000071,-0.00000127,0
 .00000275,0.00000515,0.00000124,0.00000147,0.00000491,-0.00000106,0.00
 000049,0.00000611,0.00000194,0.00000187,0.00000979,-0.00000544,-0.0000
 0250,-0.00000018,0.00000083,0.00000186,-0.00000089,-0.00000128,-0.0000
 0031,-0.00000051,-0.00000196,0.00000300,0.00000970,0.00000476,0.000004
 57,0.00000029,-0.00000341,-0.00000117,-0.00000308,0.00000227,-0.000020
 11,-0.00000113,0.00000185,0.00000384,0.00000131,0.00000005,0.00000695,
 0.00000403,-0.00000614,-0.00000614,-0.00000508,0.00000109,0.00001588,-
 0.00000245,-0.00000998,0.00000024,0.00001147,0.00000204,-0.00000696,-0
 .00000272,-0.00000767,0.00000247,0.00000526,0.00000094,0.00001197,0.00
 002070,-0.00000043,0.00001668,0.00001002,-0.00000775,-0.00003826,-0.00
 002422,-0.00001069,0.00001242,0.00001064,0.00000151,-0.00000587,-0.000
 00159,0.00000391,-0.00000758,-0.00000310,-0.00000660,0.00002127,0.0000
 0018,0.00000905,-0.00001060,-0.00000210,0.00000333,-0.00000155,-0.0000
 0048,0.00000122,-0.00000177,0.00001367,0.00000944,0.00000618,-0.000010
 24,-0.00000577,-0.00000878,-0.00001386,-0.00000631,0.00001060,-0.00000
 077,0.00000133,-0.00000885,0.00002028,0.00001858,0.00000045,-0.0000155
 6,-0.00000851,0.00000106,-0.00000994,-0.00000285,0.00000290,-0.0000036
 4,-0.00000081,-0.00000170,-0.00000227,-0.00000300,0.00000539,-0.000006
 49,-0.00000177,-0.00000235,0.00000108,-0.00000586,0.00000282,-0.000002
 16,-0.00000512,0.00000407,-0.00000267,-0.00000287,0.00000113,-0.000001
 37,-0.00000251,-0.00000057,0.00000079,-0.00000337,0.00000085,0.0000028
 7,0.00000454,-0.00000091,0.00000249,-0.00000298,-0.00000639,0.00000439
 ,0.00000259,-0.00000371,0.00000220,0.00000641,0.00000168,-0.00000102,0
 .00000741,0.00000047,-0.00000221,0.00000167,-0.00000406,-0.00000296,0.
 00000133,-0.00000097,-0.00000429,0.00000138,-0.00000050,0.00000204,0.0
 0000225,-0.00000217,-0.00000434,-0.00000066,-0.00000285,-0.00000785,-0
 .00000204,0.00000048,-0.00000288,-0.00000351,-0.00000091,-0.00000259,-
 0.00000153,-0.00000506,0.00001552,0.00000542,0.00000187,-0.00001185,-0
 .00000015,0.00000044,0.00000863,-0.00000141,0.00000010,-0.00000788,0.0
 0000819,-0.00000409,-0.00000928,-0.00000433,-0.00000082,-0.00000108,0.
 00000015,-0.00000902,0.00000840,-0.00000890,0.00001129,-0.00000066,0.0
 0000177,-0.00000136,-0.00000174,-0.00000057,0.00000223,-0.00000357,-0.
 00000349,-0.00000009,-0.00000134,-0.00000206,-0.00000627,0.00000007,-0
 .00001530,0.00000221,-0.00000317,0.00000557,-0.00000156,0.00000037,0.0
 0000377,-0.00000043,0.00000042,0.00000279,-0.00000164,0.00000221,0.000
 00245,-0.00000211,0.00000027,0.00000275,-0.00000015,0.00000219,0.00000
 306,-0.00000407,-0.00000039,0.00000459\\\@


 Experience is what you get when you don't get what you want.
 -- Dan Stanford
 Job cpu time:       0 days 15 hours 46 minutes  6.6 seconds.
 File lengths (MBytes):  RWF=   5995 Int=      0 D2E=      0 Chk=     48 Scr=      1
 Normal termination of Gaussian 09 at Thu Jul 27 11:34:20 2023.
