 Entering Gaussian System, Link 0=g09
 Input=cpx-new-2-r.com
 Output=cpx-new-2-r.log
 Initial command:
 /home/scr/programs/g09/l1.exe "/home/scr/helius/Gau-17058.inp" -scrdir="/home/scr/helius/"
 Entering Link 1 = /home/scr/programs/g09/l1.exe PID=     17060.
  
 Copyright (c) 1988,1990,1992,1993,1995,1998,2003,2009,2013,
            Gaussian, Inc.  All Rights Reserved.
  
 This is part of the Gaussian(R) 09 program.  It is based on
 the Gaussian(R) 03 system (copyright 2003, Gaussian, Inc.),
 the Gaussian(R) 98 system (copyright 1998, Gaussian, Inc.),
 the Gaussian(R) 94 system (copyright 1995, Gaussian, Inc.),
 the Gaussian 92(TM) system (copyright 1992, Gaussian, Inc.),
 the Gaussian 90(TM) system (copyright 1990, Gaussian, Inc.),
 the Gaussian 88(TM) system (copyright 1988, Gaussian, Inc.),
 the Gaussian 86(TM) system (copyright 1986, Carnegie Mellon
 University), and the Gaussian 82(TM) system (copyright 1983,
 Carnegie Mellon University). Gaussian is a federally registered
 trademark of Gaussian, Inc.
  
 This software contains proprietary and confidential information,
 including trade secrets, belonging to Gaussian, Inc.
  
 This software is provided under written license and may be
 used, copied, transmitted, or stored only in accord with that
 written license.
  
 The following legend is applicable only to US Government
 contracts under FAR:
  
                    RESTRICTED RIGHTS LEGEND
  
 Use, reproduction and disclosure by the US Government is
 subject to restrictions as set forth in subparagraphs (a)
 and (c) of the Commercial Computer Software - Restricted
 Rights clause in FAR 52.227-19.
  
 Gaussian, Inc.
 340 Quinnipiac St., Bldg. 40, Wallingford CT 06492
  
  
 ---------------------------------------------------------------
 Warning -- This program may not be used in any manner that
 competes with the business of Gaussian, Inc. or will provide
 assistance to any competitor of Gaussian, Inc.  The licensee
 of this program is prohibited from giving any competitor of
 Gaussian, Inc. access to this program.  By using this program,
 the user acknowledges that Gaussian, Inc. is engaged in the
 business of creating and licensing software in the field of
 computational chemistry and represents and warrants to the
 licensee that it is not a competitor of Gaussian, Inc. and that
 it will not use this program in any manner prohibited above.
 ---------------------------------------------------------------
  

 Cite this work as:
 Gaussian 09, Revision D.01,
 M. J. Frisch, G. W. Trucks, H. B. Schlegel, G. E. Scuseria, 
 M. A. Robb, J. R. Cheeseman, G. Scalmani, V. Barone, B. Mennucci, 
 G. A. Petersson, H. Nakatsuji, M. Caricato, X. Li, H. P. Hratchian, 
 A. F. Izmaylov, J. Bloino, G. Zheng, J. L. Sonnenberg, M. Hada, 
 M. Ehara, K. Toyota, R. Fukuda, J. Hasegawa, M. Ishida, T. Nakajima, 
 Y. Honda, O. Kitao, H. Nakai, T. Vreven, J. A. Montgomery, Jr., 
 J. E. Peralta, F. Ogliaro, M. Bearpark, J. J. Heyd, E. Brothers, 
 K. N. Kudin, V. N. Staroverov, T. Keith, R. Kobayashi, J. Normand, 
 K. Raghavachari, A. Rendell, J. C. Burant, S. S. Iyengar, J. Tomasi, 
 M. Cossi, N. Rega, J. M. Millam, M. Klene, J. E. Knox, J. B. Cross, 
 V. Bakken, C. Adamo, J. Jaramillo, R. Gomperts, R. E. Stratmann, 
 O. Yazyev, A. J. Austin, R. Cammi, C. Pomelli, J. W. Ochterski, 
 R. L. Martin, K. Morokuma, V. G. Zakrzewski, G. A. Voth, 
 P. Salvador, J. J. Dannenberg, S. Dapprich, A. D. Daniels, 
 O. Farkas, J. B. Foresman, J. V. Ortiz, J. Cioslowski, 
 and D. J. Fox, Gaussian, Inc., Wallingford CT, 2013.
 
 ******************************************
 Gaussian 09:  EM64L-G09RevD.01 24-Apr-2013
                26-Jul-2023 
 ******************************************
 %mem=30000MB
 %nprocshared=8
 Will use up to    8 processors via shared memory.
 ----------------------------------------
 # opt freq=noraman b3lyp/gen pseudo=read
 ----------------------------------------
 1/14=-1,18=20,19=15,26=3,38=1/1,3;
 2/9=110,12=2,17=6,18=5,40=1/2;
 3/5=7,11=2,16=1,17=8,25=1,30=1,71=1,74=-5/1,2,3;
 4//1;
 5/5=2,38=5/2;
 6/7=2,8=2,9=2,10=2,28=1/1;
 7//1,2,3,16;
 1/14=-1,18=20,19=15,26=3/3(2);
 2/9=110/2;
 99//99;
 2/9=110/2;
 3/5=7,6=1,11=2,16=1,17=8,25=1,30=1,71=1,74=-5,82=7/1,2,3;
 4/5=5,16=3,69=1/1;
 5/5=2,38=5/2;
 7//1,2,3,16;
 1/14=-1,18=20,19=15,26=3/3(-5);
 2/9=110/2;
 6/7=2,8=2,9=2,10=2,19=2,28=1/1;
 99/9=1/99;
 -------------------
 Title Card Required
 -------------------
 Symbolic Z-matrix:
 Charge =  0 Multiplicity = 1
 Au                   -0.25461  -0.60052   0.24643 
 S                     1.8253   -1.53658   0.74202 
 P                    -2.30593   0.35212  -0.24015 
 C                    -3.48442  -0.75359  -1.155 
 C                    -3.72578  -2.10294  -0.46394 
 C                    -2.52896   1.95483   2.09708 
 C                    -2.11822   1.84834  -1.32808 
 C                    -3.3912    2.62703  -1.68293 
 H                    -4.43122  -0.21857  -1.30076 
 H                    -3.04626  -0.91304  -2.14787 
 H                    -4.39519  -2.72324  -1.06984 
 H                    -4.19144  -1.97969   0.51986 
 H                    -2.78693  -2.64939  -0.32662 
 H                    -2.32869   2.87657   1.53988 
 H                    -1.57081   1.55974   2.45048 
 H                    -1.61782   1.48903  -2.23561 
 H                    -1.39294   2.50032  -0.82756 
 H                    -4.11716   2.00709  -2.21919 
 H                    -3.14105   3.47333  -2.33243 
 H                    -3.88386   3.03326  -0.79337 
 C                     2.93878  -0.18101   0.31314 
 C                     3.25449   0.80383   1.25712 
 C                     3.53873  -0.12722  -0.97051 
 C                     4.13061   1.84774   0.95925 
 H                     2.79214   0.74103   2.23815 
 C                     4.42019   0.93164  -1.2598 
 N                     3.30236  -1.11937  -1.91597 
 C                     4.71008   1.90697  -0.31092 
 H                     4.35836   2.60105   1.70836 
 H                     4.88424   0.97296  -2.24362 
 H                     2.48682  -1.69054  -1.7233 
 H                     3.38277  -0.83118  -2.88221 
 H                     5.39548   2.71214  -0.56465 
 C                    -3.37316   2.33027   3.32915 
 H                    -2.85093   3.06163   3.90992 
 H                    -4.31165   2.73256   3.00932 
 H                    -3.54344   1.45748   3.92424 
 O                    -3.27185   0.92104   1.24025 
 

 GradGradGradGradGradGradGradGradGradGradGradGradGradGradGradGradGradGrad
 Berny optimization.
 Initialization pass.
                           ----------------------------
                           !    Initial Parameters    !
                           ! (Angstroms and Degrees)  !
 --------------------------                            --------------------------
 ! Name  Definition              Value          Derivative Info.                !
 --------------------------------------------------------------------------------
 ! R1    R(1,2)                  2.3341         estimate D2E/DX2                !
 ! R2    R(1,3)                  2.3135         estimate D2E/DX2                !
 ! R3    R(2,21)                 1.8059         estimate D2E/DX2                !
 ! R4    R(3,4)                  1.857          estimate D2E/DX2                !
 ! R5    R(3,7)                  1.8594         estimate D2E/DX2                !
 ! R6    R(3,38)                 1.8569         estimate D2E/DX2                !
 ! R7    R(4,5)                  1.5351         estimate D2E/DX2                !
 ! R8    R(4,9)                  1.0972         estimate D2E/DX2                !
 ! R9    R(4,10)                 1.0969         estimate D2E/DX2                !
 ! R10   R(5,11)                 1.0954         estimate D2E/DX2                !
 ! R11   R(5,12)                 1.0954         estimate D2E/DX2                !
 ! R12   R(5,13)                 1.0949         estimate D2E/DX2                !
 ! R13   R(6,14)                 1.0955         estimate D2E/DX2                !
 ! R14   R(6,15)                 1.095          estimate D2E/DX2                !
 ! R15   R(6,34)                 1.54           estimate D2E/DX2                !
 ! R16   R(6,38)                 1.5345         estimate D2E/DX2                !
 ! R17   R(7,8)                  1.5339         estimate D2E/DX2                !
 ! R18   R(7,16)                 1.0969         estimate D2E/DX2                !
 ! R19   R(7,17)                 1.0962         estimate D2E/DX2                !
 ! R20   R(8,18)                 1.095          estimate D2E/DX2                !
 ! R21   R(8,19)                 1.0957         estimate D2E/DX2                !
 ! R22   R(8,20)                 1.095          estimate D2E/DX2                !
 ! R23   R(21,22)                1.4002         estimate D2E/DX2                !
 ! R24   R(21,23)                1.4179         estimate D2E/DX2                !
 ! R25   R(22,24)                1.395          estimate D2E/DX2                !
 ! R26   R(22,25)                1.0863         estimate D2E/DX2                !
 ! R27   R(23,26)                1.4078         estimate D2E/DX2                !
 ! R28   R(23,27)                1.3907         estimate D2E/DX2                !
 ! R29   R(24,28)                1.3974         estimate D2E/DX2                !
 ! R30   R(24,29)                1.0865         estimate D2E/DX2                !
 ! R31   R(26,28)                1.3913         estimate D2E/DX2                !
 ! R32   R(26,30)                1.0886         estimate D2E/DX2                !
 ! R33   R(27,31)                1.0141         estimate D2E/DX2                !
 ! R34   R(27,32)                1.0115         estimate D2E/DX2                !
 ! R35   R(28,33)                1.0874         estimate D2E/DX2                !
 ! R36   R(34,35)                1.07           estimate D2E/DX2                !
 ! R37   R(34,36)                1.07           estimate D2E/DX2                !
 ! R38   R(34,37)                1.07           estimate D2E/DX2                !
 ! A1    A(1,2,21)             101.4188         estimate D2E/DX2                !
 ! A2    A(1,3,4)              114.9063         estimate D2E/DX2                !
 ! A3    A(1,3,7)              111.4006         estimate D2E/DX2                !
 ! A4    A(1,3,38)             114.816          estimate D2E/DX2                !
 ! A5    A(4,3,7)              104.7702         estimate D2E/DX2                !
 ! A6    A(4,3,38)             104.186          estimate D2E/DX2                !
 ! A7    A(7,3,38)             105.8092         estimate D2E/DX2                !
 ! A8    A(3,4,5)              113.6646         estimate D2E/DX2                !
 ! A9    A(3,4,9)              108.8276         estimate D2E/DX2                !
 ! A10   A(3,4,10)             106.1996         estimate D2E/DX2                !
 ! A11   A(5,4,9)              110.6547         estimate D2E/DX2                !
 ! A12   A(5,4,10)             110.0297         estimate D2E/DX2                !
 ! A13   A(9,4,10)             107.1769         estimate D2E/DX2                !
 ! A14   A(4,5,11)             110.1703         estimate D2E/DX2                !
 ! A15   A(4,5,12)             111.8543         estimate D2E/DX2                !
 ! A16   A(4,5,13)             111.1198         estimate D2E/DX2                !
 ! A17   A(11,5,12)            107.4999         estimate D2E/DX2                !
 ! A18   A(11,5,13)            108.1033         estimate D2E/DX2                !
 ! A19   A(12,5,13)            107.9403         estimate D2E/DX2                !
 ! A20   A(14,6,15)            107.9243         estimate D2E/DX2                !
 ! A21   A(14,6,34)            107.5784         estimate D2E/DX2                !
 ! A22   A(14,6,38)            111.7969         estimate D2E/DX2                !
 ! A23   A(15,6,34)            108.0251         estimate D2E/DX2                !
 ! A24   A(15,6,38)            111.1454         estimate D2E/DX2                !
 ! A25   A(34,6,38)            110.217          estimate D2E/DX2                !
 ! A26   A(3,7,8)              117.3916         estimate D2E/DX2                !
 ! A27   A(3,7,16)             105.4599         estimate D2E/DX2                !
 ! A28   A(3,7,17)             106.1548         estimate D2E/DX2                !
 ! A29   A(8,7,16)             110.7022         estimate D2E/DX2                !
 ! A30   A(8,7,17)             110.6574         estimate D2E/DX2                !
 ! A31   A(16,7,17)            105.7105         estimate D2E/DX2                !
 ! A32   A(7,8,18)             112.0928         estimate D2E/DX2                !
 ! A33   A(7,8,19)             109.8623         estimate D2E/DX2                !
 ! A34   A(7,8,20)             111.9498         estimate D2E/DX2                !
 ! A35   A(18,8,19)            107.3579         estimate D2E/DX2                !
 ! A36   A(18,8,20)            108.036          estimate D2E/DX2                !
 ! A37   A(19,8,20)            107.3207         estimate D2E/DX2                !
 ! A38   A(2,21,22)            120.4543         estimate D2E/DX2                !
 ! A39   A(2,21,23)            120.2882         estimate D2E/DX2                !
 ! A40   A(22,21,23)           119.2238         estimate D2E/DX2                !
 ! A41   A(21,22,24)           121.599          estimate D2E/DX2                !
 ! A42   A(21,22,25)           118.1765         estimate D2E/DX2                !
 ! A43   A(24,22,25)           120.2235         estimate D2E/DX2                !
 ! A44   A(21,23,26)           118.6522         estimate D2E/DX2                !
 ! A45   A(21,23,27)           121.0953         estimate D2E/DX2                !
 ! A46   A(26,23,27)           120.2185         estimate D2E/DX2                !
 ! A47   A(22,24,28)           119.0937         estimate D2E/DX2                !
 ! A48   A(22,24,29)           120.2159         estimate D2E/DX2                !
 ! A49   A(28,24,29)           120.6902         estimate D2E/DX2                !
 ! A50   A(23,26,28)           121.1706         estimate D2E/DX2                !
 ! A51   A(23,26,30)           118.7634         estimate D2E/DX2                !
 ! A52   A(28,26,30)           120.0637         estimate D2E/DX2                !
 ! A53   A(23,27,31)           114.1619         estimate D2E/DX2                !
 ! A54   A(23,27,32)           115.6356         estimate D2E/DX2                !
 ! A55   A(31,27,32)           113.9459         estimate D2E/DX2                !
 ! A56   A(24,28,26)           120.253          estimate D2E/DX2                !
 ! A57   A(24,28,33)           120.3221         estimate D2E/DX2                !
 ! A58   A(26,28,33)           119.424          estimate D2E/DX2                !
 ! A59   A(6,34,35)            109.4712         estimate D2E/DX2                !
 ! A60   A(6,34,36)            109.4712         estimate D2E/DX2                !
 ! A61   A(6,34,37)            109.4712         estimate D2E/DX2                !
 ! A62   A(35,34,36)           109.4713         estimate D2E/DX2                !
 ! A63   A(35,34,37)           109.4712         estimate D2E/DX2                !
 ! A64   A(36,34,37)           109.4712         estimate D2E/DX2                !
 ! A65   A(3,38,6)             113.561          estimate D2E/DX2                !
 ! A66   L(2,1,3,13,-1)        180.6729         estimate D2E/DX2                !
 ! A67   L(2,1,3,13,-2)        179.9324         estimate D2E/DX2                !
 ! D1    D(21,2,3,4)           136.05           estimate D2E/DX2                !
 ! D2    D(21,2,3,7)            17.0662         estimate D2E/DX2                !
 ! D3    D(21,2,3,38)         -102.9282         estimate D2E/DX2                !
 ! D4    D(1,2,21,22)           87.3986         estimate D2E/DX2                !
 ! D5    D(1,2,21,23)          -94.7274         estimate D2E/DX2                !
 ! D6    D(1,3,4,5)             54.173          estimate D2E/DX2                !
 ! D7    D(1,3,4,9)            177.9742         estimate D2E/DX2                !
 ! D8    D(1,3,4,10)           -66.94           estimate D2E/DX2                !
 ! D9    D(7,3,4,5)            176.7525         estimate D2E/DX2                !
 ! D10   D(7,3,4,9)            -59.4464         estimate D2E/DX2                !
 ! D11   D(7,3,4,10)            55.6394         estimate D2E/DX2                !
 ! D12   D(38,3,4,5)           -72.3159         estimate D2E/DX2                !
 ! D13   D(38,3,4,9)            51.4852         estimate D2E/DX2                !
 ! D14   D(38,3,4,10)          166.571          estimate D2E/DX2                !
 ! D15   D(1,3,7,8)           -177.2278         estimate D2E/DX2                !
 ! D16   D(1,3,7,16)            58.9646         estimate D2E/DX2                !
 ! D17   D(1,3,7,17)           -52.9118         estimate D2E/DX2                !
 ! D18   D(4,3,7,8)             57.9447         estimate D2E/DX2                !
 ! D19   D(4,3,7,16)           -65.8629         estimate D2E/DX2                !
 ! D20   D(4,3,7,17)          -177.7393         estimate D2E/DX2                !
 ! D21   D(38,3,7,8)           -51.8141         estimate D2E/DX2                !
 ! D22   D(38,3,7,16)         -175.6217         estimate D2E/DX2                !
 ! D23   D(38,3,7,17)           72.5019         estimate D2E/DX2                !
 ! D24   D(1,3,38,6)            58.3114         estimate D2E/DX2                !
 ! D25   D(4,3,38,6)          -175.1432         estimate D2E/DX2                !
 ! D26   D(7,3,38,6)           -64.9692         estimate D2E/DX2                !
 ! D27   D(3,4,5,11)          -177.7353         estimate D2E/DX2                !
 ! D28   D(3,4,5,12)            62.7606         estimate D2E/DX2                !
 ! D29   D(3,4,5,13)           -57.9493         estimate D2E/DX2                !
 ! D30   D(9,4,5,11)            59.4618         estimate D2E/DX2                !
 ! D31   D(9,4,5,12)           -60.0423         estimate D2E/DX2                !
 ! D32   D(9,4,5,13)           179.2477         estimate D2E/DX2                !
 ! D33   D(10,4,5,11)          -58.7904         estimate D2E/DX2                !
 ! D34   D(10,4,5,12)         -178.2945         estimate D2E/DX2                !
 ! D35   D(10,4,5,13)           60.9955         estimate D2E/DX2                !
 ! D36   D(14,6,34,35)         -57.046          estimate D2E/DX2                !
 ! D37   D(14,6,34,36)          62.954          estimate D2E/DX2                !
 ! D38   D(14,6,34,37)        -177.046          estimate D2E/DX2                !
 ! D39   D(15,6,34,35)          59.223          estimate D2E/DX2                !
 ! D40   D(15,6,34,36)         179.223          estimate D2E/DX2                !
 ! D41   D(15,6,34,37)         -60.777          estimate D2E/DX2                !
 ! D42   D(38,6,34,35)        -179.1696         estimate D2E/DX2                !
 ! D43   D(38,6,34,36)         -59.1696         estimate D2E/DX2                !
 ! D44   D(38,6,34,37)          60.8304         estimate D2E/DX2                !
 ! D45   D(14,6,38,3)           62.634          estimate D2E/DX2                !
 ! D46   D(15,6,38,3)          -58.034          estimate D2E/DX2                !
 ! D47   D(34,6,38,3)         -177.7692         estimate D2E/DX2                !
 ! D48   D(3,7,8,18)           -60.1889         estimate D2E/DX2                !
 ! D49   D(3,7,8,19)          -179.4626         estimate D2E/DX2                !
 ! D50   D(3,7,8,20)            61.4019         estimate D2E/DX2                !
 ! D51   D(16,7,8,18)           60.9268         estimate D2E/DX2                !
 ! D52   D(16,7,8,19)          -58.3469         estimate D2E/DX2                !
 ! D53   D(16,7,8,20)         -177.4824         estimate D2E/DX2                !
 ! D54   D(17,7,8,18)          177.7883         estimate D2E/DX2                !
 ! D55   D(17,7,8,19)           58.5147         estimate D2E/DX2                !
 ! D56   D(17,7,8,20)          -60.6209         estimate D2E/DX2                !
 ! D57   D(2,21,22,24)         178.8186         estimate D2E/DX2                !
 ! D58   D(2,21,22,25)          -1.5499         estimate D2E/DX2                !
 ! D59   D(23,21,22,24)          0.9222         estimate D2E/DX2                !
 ! D60   D(23,21,22,25)       -179.4463         estimate D2E/DX2                !
 ! D61   D(2,21,23,26)        -178.8561         estimate D2E/DX2                !
 ! D62   D(2,21,23,27)          -0.9719         estimate D2E/DX2                !
 ! D63   D(22,21,23,26)         -0.9561         estimate D2E/DX2                !
 ! D64   D(22,21,23,27)        176.9281         estimate D2E/DX2                !
 ! D65   D(21,22,24,28)         -0.2571         estimate D2E/DX2                !
 ! D66   D(21,22,24,29)        179.8851         estimate D2E/DX2                !
 ! D67   D(25,22,24,28)       -179.8811         estimate D2E/DX2                !
 ! D68   D(25,22,24,29)          0.261          estimate D2E/DX2                !
 ! D69   D(21,23,26,28)          0.3575         estimate D2E/DX2                !
 ! D70   D(21,23,26,30)        179.8085         estimate D2E/DX2                !
 ! D71   D(27,23,26,28)       -177.5459         estimate D2E/DX2                !
 ! D72   D(27,23,26,30)          1.9051         estimate D2E/DX2                !
 ! D73   D(21,23,27,31)         17.5291         estimate D2E/DX2                !
 ! D74   D(21,23,27,32)        152.6584         estimate D2E/DX2                !
 ! D75   D(26,23,27,31)       -164.6196         estimate D2E/DX2                !
 ! D76   D(26,23,27,32)        -29.4903         estimate D2E/DX2                !
 ! D77   D(22,24,28,26)         -0.3645         estimate D2E/DX2                !
 ! D78   D(22,24,28,33)        179.977          estimate D2E/DX2                !
 ! D79   D(29,24,28,26)        179.4927         estimate D2E/DX2                !
 ! D80   D(29,24,28,33)         -0.1658         estimate D2E/DX2                !
 ! D81   D(23,26,28,24)          0.3091         estimate D2E/DX2                !
 ! D82   D(23,26,28,33)        179.9706         estimate D2E/DX2                !
 ! D83   D(30,26,28,24)       -179.1349         estimate D2E/DX2                !
 ! D84   D(30,26,28,33)          0.5267         estimate D2E/DX2                !
 --------------------------------------------------------------------------------
 Trust Radius=3.00D-01 FncErr=1.00D-07 GrdErr=1.00D-06
 Number of steps in this run=    199 maximum allowed number of steps=    228.
 GradGradGradGradGradGradGradGradGradGradGradGradGradGradGradGradGradGrad

                          Input orientation:                          
 ---------------------------------------------------------------------
 Center     Atomic      Atomic             Coordinates (Angstroms)
 Number     Number       Type             X           Y           Z
 ---------------------------------------------------------------------
      1         79           0       -0.254613   -0.600524    0.246428
      2         16           0        1.825297   -1.536577    0.742022
      3         15           0       -2.305934    0.352124   -0.240146
      4          6           0       -3.484423   -0.753591   -1.155000
      5          6           0       -3.725783   -2.102938   -0.463935
      6          6           0       -2.528962    1.954832    2.097084
      7          6           0       -2.118217    1.848335   -1.328084
      8          6           0       -3.391198    2.627030   -1.682925
      9          1           0       -4.431224   -0.218569   -1.300759
     10          1           0       -3.046263   -0.913042   -2.147872
     11          1           0       -4.395191   -2.723239   -1.069843
     12          1           0       -4.191437   -1.979688    0.519856
     13          1           0       -2.786933   -2.649391   -0.326621
     14          1           0       -2.328689    2.876566    1.539879
     15          1           0       -1.570808    1.559735    2.450476
     16          1           0       -1.617820    1.489030   -2.235607
     17          1           0       -1.392943    2.500321   -0.827563
     18          1           0       -4.117160    2.007090   -2.219192
     19          1           0       -3.141049    3.473328   -2.332430
     20          1           0       -3.883857    3.033257   -0.793372
     21          6           0        2.938779   -0.181008    0.313137
     22          6           0        3.254485    0.803828    1.257119
     23          6           0        3.538732   -0.127216   -0.970506
     24          6           0        4.130611    1.847744    0.959254
     25          1           0        2.792140    0.741031    2.238145
     26          6           0        4.420189    0.931637   -1.259798
     27          7           0        3.302364   -1.119365   -1.915968
     28          6           0        4.710077    1.906970   -0.310922
     29          1           0        4.358363    2.601048    1.708363
     30          1           0        4.884237    0.972957   -2.243624
     31          1           0        2.486824   -1.690535   -1.723299
     32          1           0        3.382772   -0.831180   -2.882206
     33          1           0        5.395477    2.712135   -0.564653
     34          6           0       -3.373157    2.330272    3.329147
     35          1           0       -2.850931    3.061630    3.909918
     36          1           0       -4.311653    2.732562    3.009323
     37          1           0       -3.543438    1.457481    3.924244
     38          8           0       -3.271851    0.921041    1.240250
 ---------------------------------------------------------------------
                    Distance matrix (angstroms):
                    1          2          3          4          5
     1  Au   0.000000
     2  S    2.334060   0.000000
     3  P    2.313484   4.647463   0.000000
     4  C    3.524075   5.692529   1.856987   0.000000
     5  C    3.848491   5.708729   2.844887   1.535110   0.000000
     6  C    3.889400   5.743318   2.842720   4.338722   4.945371
     7  C    3.456735   5.594128   1.859434   2.943891   4.352422
     8  C    4.896700   7.101254   2.904239   3.422863   4.895966
     9  H    4.470320   6.712239   2.442836   1.097236   2.179167
    10  H    3.691023   5.698454   2.405858   1.096906   2.171001
    11  H    4.835584   6.586766   3.809363   2.171696   1.095447
    12  H    4.180364   6.037118   3.093553   2.192789   1.095385
    13  H    3.307399   4.863437   3.041041   2.183291   1.094945
    14  H    4.250290   6.112938   3.088983   4.666491   5.546404
    15  H    3.355133   4.903008   3.039438   4.691786   5.152949
    16  H    3.519242   5.465860   2.397482   3.111473   4.525988
    17  H    3.473398   5.396037   2.406940   3.881939   5.173428
    18  H    5.272400   7.525899   3.152154   3.025594   4.486249
    19  H    5.619457   7.695193   3.849284   4.401260   5.909986
    20  H    5.239939   7.472299   3.159806   3.824989   5.149176
    21  C    3.221521   1.805921   5.300695   6.613683   6.979545
    22  C    3.912476   2.790233   5.776166   7.325077   7.754705
    23  C    4.011785   2.802661   5.909595   7.053445   7.545414
    24  C    5.072704   4.100645   6.715992   8.320202   8.908214
    25  H    3.879357   2.891482   5.681860   7.289895   7.607412
    26  C    5.144901   4.102783   6.827610   8.082937   8.729198
    27  N    4.194906   3.069316   6.035451   6.839104   7.243664
    28  C    5.589840   4.613964   7.186582   8.656840   9.341655
    29  H    5.802315   4.946734   7.298438   8.997874   9.602072
    30  H    5.923173   4.956708   7.489854   8.613974   9.314551
    31  H    3.547312   2.557172   5.416893   6.070965   6.352366
    32  H    4.803345   4.007286   6.382951   7.081499   7.615573
    33  H    6.599627   5.701328   8.061432   9.550518  10.314672
    34  C    5.274281   6.976364   4.218043   5.443360   5.845098
    35  H    5.794255   7.283281   4.986128   6.372646   6.824128
    36  H    5.933180   7.812065   4.499827   5.493556   5.982376
    37  H    5.345848   6.922011   4.482786   5.539949   5.653843
    38  O    3.522296   5.680584   1.856942   2.930325   3.500678
                    6          7          8          9         10
     6  C    0.000000
     7  C    3.451352   0.000000
     8  C    3.934942   1.533870   0.000000
     9  H    4.459553   3.102070   3.053709   0.000000
    10  H    5.148976   3.026305   3.587097   1.765789   0.000000
    11  H    5.949503   5.113765   5.478070   2.515550   2.501713
    12  H    4.553232   4.729364   5.168605   2.544342   3.092884
    13  H    5.209584   4.656141   5.481361   3.092173   2.529647
    14  H    1.095527   3.053976   3.402596   4.697844   5.336249
    15  H    1.095010   3.828898   4.640899   5.041439   5.425532
    16  H    4.451894   1.096857   2.178387   3.421268   2.796086
    17  H    3.184597   1.096189   2.177320   4.104562   4.015934
    18  H    4.599494   2.194322   1.094956   2.428109   3.111122
    19  H    4.722401   2.166910   1.095742   4.044626   4.391274
    20  H    3.369492   2.192588   1.095006   3.336379   4.255527
    21  C    6.135183   5.690786   7.206799   7.544734   6.512539
    22  C    5.956392   6.053115   7.492198   8.164445   7.364851
    23  C    7.110692   6.002644   7.491151   7.977319   6.735419
    24  C    6.756925   6.654304   8.010369   9.092982   8.293593
    25  H    5.459610   6.168932   7.560784   8.100720   7.487326
    26  C    7.785004   6.602708   8.004446   8.925926   7.742055
    27  N    7.717489   6.207701   7.674214   7.810141   6.356211
    28  C    7.629185   6.903887   8.248123   9.437218   8.455038
    29  H    6.928488   7.192543   8.459149   9.708857   9.058028
    30  H    8.646464   7.116099   8.457728   9.438567   8.152238
    31  H    7.283003   5.821185   7.293431   7.085521   5.603553
    32  H    8.216069   6.313159   7.699621   7.995924   6.471355
    33  H    8.393753   7.601617   8.857959  10.280804   9.322632
    34  C    1.540000   4.847364   5.020882   5.390002   6.373671
    35  H    2.148263   5.426382   5.635660   6.356743   7.247965
    36  H    2.148263   4.940255   4.782841   5.224967   6.441141
    37  H    2.148263   5.456278   5.729866   5.558593   6.537366
    38  O    1.534527   2.964302   3.386679   3.016552   3.859290
                   11         12         13         14         15
    11  H    0.000000
    12  H    1.766784   0.000000
    13  H    1.773225   1.771343   0.000000
    14  H    6.514514   5.300328   5.850642   0.000000
    15  H    6.222030   4.808587   5.187289   1.771331   0.000000
    16  H    5.178417   5.123289   4.705059   4.084714   4.686852
    17  H    6.029741   5.451384   5.358515   2.573317   3.414949
    18  H    4.875891   4.837592   5.199437   4.252673   5.337587
    19  H    6.447049   6.242935   6.452624   4.001354   5.385507
    20  H    5.785771   5.191222   5.806340   2.808409   4.247824
    21  C    7.884332   7.356491   6.267853   6.212880   5.285336
    22  C    8.739136   7.983312   7.136644   5.962217   5.027818
    23  C    8.348433   8.087543   6.840321   7.053465   6.376231
    24  C    9.884352   9.170539   8.350456   6.566442   5.900243
    25  H    8.637226   7.689290   7.014203   5.592046   4.444173
    26  C    9.544901   9.262995   8.101678   7.560972   7.074792
    27  N    7.908267   7.926566   6.476615   7.721341   7.070447
    28  C   10.243081   9.748500   8.773017   7.342330   6.869891
    29  H   10.615610   9.772143   9.097446   6.694846   6.065487
    30  H   10.057207   9.935934   8.697307   8.364504   8.002905
    31  H    6.989679   7.050853   5.539190   7.395668   6.667011
    32  H    8.207390   8.382228   6.921139   8.119298   7.661066
    33  H   11.209625  10.728387   9.785420   8.007424   7.677770
    34  C    6.777436   5.209362   6.205267   2.142623   2.148081
    35  H    7.787648   6.221283   7.111126   2.433941   2.454460
    36  H    6.812660   5.330779   6.512965   2.472276   3.033161
    37  H    6.568470   4.880972   5.958905   3.028963   2.464492
    38  O    4.458610   3.127113   3.929149   2.191668   2.183146
                   16         17         18         19         20
    16  H    0.000000
    17  H    1.748104   0.000000
    18  H    2.552520   3.098591   0.000000
    19  H    2.503406   2.503446   1.765069   0.000000
    20  H    3.098323   2.547517   1.772121   1.764689   0.000000
    21  C    5.481580   5.220588   7.809401   7.570833   7.622613
    22  C    6.033904   5.368666   8.238551   7.804739   7.754405
    23  C    5.550023   5.589794   8.045319   7.709619   8.069374
    24  C    6.586370   5.841936   8.840455   8.145842   8.289079
    25  H    6.326271   5.478009   8.319206   7.972348   7.682013
    26  C    6.141697   6.036564   8.658139   8.048792   8.578551
    27  N    5.578002   6.027658   8.057047   7.923625   8.375337
    28  C    6.627320   6.153522   9.031701   8.257127   8.680840
    29  H    7.246119   6.286381   9.360180   8.563297   8.624365
    30  H    6.522510   6.613702   9.060639   8.406245   9.122913
    31  H    5.217298   5.780848   7.584916   7.662211   7.985271
    32  H    5.550440   6.174780   8.046387   7.835259   8.491231
    33  H    7.312620   6.796810   9.681160   8.750813   9.287705
    34  C    5.895370   4.607429   5.607321   5.780476   4.213095
    35  H    6.462284   4.988439   6.346761   6.262633   4.815463
    36  H    6.025977   4.826438   5.282188   5.518458   3.838478
    37  H    6.453895   5.319005   6.194597   6.585706   4.985464
    38  O    3.891017   3.209404   3.723142   4.392644   2.995267
                   21         22         23         24         25
    21  C    0.000000
    22  C    1.400241   0.000000
    23  C    1.417948   2.431039   0.000000
    24  C    2.440034   1.395020   2.823962   0.000000
    25  H    2.139466   1.086333   3.406860   2.156822   0.000000
    26  C    2.430366   2.776702   1.407773   2.418119   3.862963
    27  N    2.445734   3.710720   1.390729   4.213862   4.580181
    28  C    2.808309   2.407161   2.438240   1.397367   3.396416
    29  H    3.420776   2.156888   3.910442   1.086509   2.488652
    30  H    3.413718   3.865216   2.154436   3.404649   4.951456
    31  H    2.574880   3.961571   2.029082   4.734717   4.658194
    32  H    3.290907   4.452384   2.043156   4.742648   5.388756
    33  H    3.895659   3.397696   3.416743   2.160868   4.303288
    34  C    7.432589   7.109780   8.502969   7.883893   6.459633
    35  H    7.547998   7.029304   8.649570   7.676058   6.326472
    36  H    8.266019   8.002292   9.254508   8.732555   7.417870
    37  H    7.598940   7.331615   8.753684   8.236171   6.595133
    38  O    6.375420   6.527410   7.236734   7.465533   6.148185
                   26         27         28         29         30
    26  C    0.000000
    27  N    2.426252   0.000000
    28  C    1.391285   3.703584   0.000000
    29  H    3.405985   5.300225   2.164015   0.000000
    30  H    1.088559   2.643386   2.153613   4.306440   0.000000
    31  H    3.290672   1.014131   4.458666   5.804881   3.621121
    32  H    2.610740   1.011500   3.983805   5.814232   2.432508
    33  H    2.145830   4.570292   1.087402   2.500909   2.470840
    34  C    9.151549   9.163722   8.875132   7.904218  10.053986
    35  H    9.172350   9.449058   8.735992   7.552013  10.102547
    36  H    9.885029   9.852365   9.648691   8.768066  10.735644
    37  H    9.516836   9.360193   9.287582   8.285912  10.454811
    38  O    8.088129   7.572666   8.190810   7.826987   8.869151
                   31         32         33         34         35
    31  H    0.000000
    32  H    1.698317   0.000000
    33  H    5.402428   4.687976   0.000000
    34  C    8.719718   9.706609   9.601898   0.000000
    35  H    9.099881  10.007296   9.388672   1.070000   0.000000
    36  H    9.390463  10.325432  10.344182   1.070000   1.747303
    37  H    8.841313   9.976879  10.081099   1.070000   1.747303
    38  O    6.983215   8.021778   9.032622   2.521842   3.447669
                   36         37         38
    36  H    0.000000
    37  H    1.747303   0.000000
    38  O    2.737228   2.750518   0.000000
 Stoichiometry    C12H21AuNOPS
 Framework group  C1[X(C12H21AuNOPS)]
 Deg. of freedom   108
 Full point group                 C1      NOp   1
 Largest Abelian subgroup         C1      NOp   1
 Largest concise Abelian subgroup C1      NOp   1
                         Standard orientation:                         
 ---------------------------------------------------------------------
 Center     Atomic      Atomic             Coordinates (Angstroms)
 Number     Number       Type             X           Y           Z
 ---------------------------------------------------------------------
      1         79           0        0.097953   -0.562906   -0.426156
      2         16           0       -1.989965   -0.959432   -1.391143
      3         15           0        2.159205   -0.144901    0.537547
      4          6           0        3.188077   -1.654808    0.869216
      5          6           0        3.398997   -2.540398   -0.366829
      6          6           0        2.670558    2.335750   -0.753169
      7          6           0        1.978864    0.679218    2.194592
      8          6           0        3.265543    1.078718    2.927814
      9          1           0        4.151822   -1.341235    1.289684
     10          1           0        2.662058   -2.218168    1.649687
     11          1           0        3.976948   -3.431553   -0.098835
     12          1           0        3.949354   -2.015677   -1.155273
     13          1           0        2.441760   -2.868711   -0.784934
     14          1           0        2.484393    2.904199    0.164649
     15          1           0        1.721082    2.243309   -1.290753
     16          1           0        1.385242   -0.014092    2.802893
     17          1           0        1.338831    1.554180    2.032026
     18          1           0        3.905394    0.215149    3.137021
     19          1           0        3.017568    1.542372    3.889160
     20          1           0        3.852971    1.805596    2.357187
     21          6           0       -3.046879    0.135791   -0.419149
     22          6           0       -3.222757    1.472346   -0.797779
     23          6           0       -3.743882   -0.360931    0.711351
     24          6           0       -4.052606    2.332670   -0.078562
     25          1           0       -2.687626    1.832546   -1.671856
     26          6           0       -4.577402    0.517029    1.429860
     27          7           0       -3.647505   -1.697185    1.084536
     28          6           0       -4.727801    1.845104    1.043502
     29          1           0       -4.171292    3.366369   -0.391423
     30          1           0       -5.115805    0.136802    2.296181
     31          1           0       -2.856654   -2.185470    0.678835
     32          1           0       -3.787323   -1.888081    2.067969
     33          1           0       -5.379394    2.498353    1.618946
     34          6           0        3.633377    3.162809   -1.625264
     35          1           0        3.206797    4.126064   -1.812533
     36          1           0        4.566460    3.279106   -1.114645
     37          1           0        3.795847    2.657903   -2.554550
     38          8           0        3.275326    0.956942   -0.456661
 ---------------------------------------------------------------------
 Rotational constants (GHZ):      0.4281366      0.1600031      0.1481806
 General basis read from cards:  (5D, 7F)
 ======================================================================================================
                                       Pseudopotential Parameters
 ======================================================================================================
  Center     Atomic      Valence      Angular      Power
  Number     Number     Electrons     Momentum     of R      Exponent        Coefficient   SO-Coeffient
 ======================================================================================================
    1         79           19
                                      G and up 
                                                     1      622.6287956      -60.00000000    0.00000000
                                                     2      136.2843607     -555.52923120    0.00000000
                                                     2       33.1549781     -168.00197850    0.00000000
                                                     2        9.9894895      -63.03998750    0.00000000
                                                     2        3.0481312       -4.25166810    0.00000000
                                      S - G
                                                     0      194.7374304        3.00000000    0.00000000
                                                     1      351.5327447       38.60208800    0.00000000
                                                     2      122.3270402      864.83707270    0.00000000
                                                     2       32.0914617      374.99355200    0.00000000
                                                     2        5.2451812      289.79101000    0.00000000
                                                     2        4.4916223     -152.45327730    0.00000000
                                      P - G
                                                     0      420.6158801        2.00000000    0.00000000
                                                     1      109.4417815       73.88856250    0.00000000
                                                     2       34.1714280      326.67298720    0.00000000
                                                     2        5.9879750      126.58145910    0.00000000
                                      D - G
                                                     0      219.2666158        3.00000000    0.00000000
                                                     1      122.7297786       55.67931490    0.00000000
                                                     2       63.1063369      449.19873350    0.00000000
                                                     2       18.3684520      215.02690910    0.00000000
                                                     2        4.4972844       64.08409950    0.00000000
                                      F - G
                                                     0      108.5506037        4.00000000    0.00000000
                                                     1       56.4795527       51.80653350    0.00000000
                                                     2       29.2069159      231.21831130    0.00000000
                                                     2        9.5440543      119.00473860    0.00000000
                                                     2        2.8965118       15.34241880    0.00000000
    2         16
                                   No pseudopotential on this center.
    3         15
                                   No pseudopotential on this center.
    4          6
                                   No pseudopotential on this center.
    5          6
                                   No pseudopotential on this center.
    6          6
                                   No pseudopotential on this center.
    7          6
                                   No pseudopotential on this center.
    8          6
                                   No pseudopotential on this center.
    9          1
                                   No pseudopotential on this center.
   10          1
                                   No pseudopotential on this center.
   11          1
                                   No pseudopotential on this center.
   12          1
                                   No pseudopotential on this center.
   13          1
                                   No pseudopotential on this center.
   14          1
                                   No pseudopotential on this center.
   15          1
                                   No pseudopotential on this center.
   16          1
                                   No pseudopotential on this center.
   17          1
                                   No pseudopotential on this center.
   18          1
                                   No pseudopotential on this center.
   19          1
                                   No pseudopotential on this center.
   20          1
                                   No pseudopotential on this center.
   21          6
                                   No pseudopotential on this center.
   22          6
                                   No pseudopotential on this center.
   23          6
                                   No pseudopotential on this center.
   24          6
                                   No pseudopotential on this center.
   25          1
                                   No pseudopotential on this center.
   26          6
                                   No pseudopotential on this center.
   27          7
                                   No pseudopotential on this center.
   28          6
                                   No pseudopotential on this center.
   29          1
                                   No pseudopotential on this center.
   30          1
                                   No pseudopotential on this center.
   31          1
                                   No pseudopotential on this center.
   32          1
                                   No pseudopotential on this center.
   33          1
                                   No pseudopotential on this center.
   34          6
                                   No pseudopotential on this center.
   35          1
                                   No pseudopotential on this center.
   36          1
                                   No pseudopotential on this center.
   37          1
                                   No pseudopotential on this center.
   38          8
                                   No pseudopotential on this center.
 ======================================================================================================
 There are   338 symmetry adapted cartesian basis functions of A   symmetry.
 There are   316 symmetry adapted basis functions of A   symmetry.
   316 basis functions,   628 primitive gaussians,   338 cartesian basis functions
    79 alpha electrons       79 beta electrons
       nuclear repulsion energy      1639.9408495882 Hartrees.
 NAtoms=   38 NActive=   38 NUniq=   38 SFac= 1.00D+00 NAtFMM=   60 NAOKFM=F Big=F
 Integral buffers will be    131072 words long.
 Raffenetti 2 integral format.
 Two-electron integral symmetry is turned on.
 One-electron integrals computed using PRISM.
   1 Symmetry operations used in ECPInt.
 ECPInt:  NShTT=    7503 NPrTT=   41422 LenC2=    6431 LenP2D=   20899.
 LDataN:  DoStor=T MaxTD1= 7 Len=  274
 NBasis=   316 RedAO= T EigKep=  4.75D-04  NBF=   316
 NBsUse=   316 1.00D-06 EigRej= -1.00D+00 NBFU=   316
 Defaulting to unpruned grid for atomic number  79.
 ExpMin= 2.79D-02 ExpMax= 2.19D+04 ExpMxC= 3.30D+03 IAcc=3 IRadAn=         5 AccDes= 0.00D+00
 Harris functional with IExCor=  402 and IRadAn=       5 diagonalized for initial guess.
 HarFok:  IExCor=  402 AccDes= 0.00D+00 IRadAn=         5 IDoV= 1 UseB2=F ITyADJ=14
 ICtDFT=  3500011 ScaDFX=  1.000000  1.000000  1.000000  1.000000
 Defaulting to unpruned grid for atomic number  79.
 Defaulting to unpruned grid for atomic number  79.
 Defaulting to unpruned grid for atomic number  79.
 Defaulting to unpruned grid for atomic number  79.
 Defaulting to unpruned grid for atomic number  79.
 Defaulting to unpruned grid for atomic number  79.
 Defaulting to unpruned grid for atomic number  79.
 Defaulting to unpruned grid for atomic number  79.
 FoFCou: FMM=F IPFlag=           0 FMFlag=      100000 FMFlg1=           0
         NFxFlg=           0 DoJE=T BraDBF=F KetDBF=T FulRan=T
         wScrn=  0.000000 ICntrl=     500 IOpCl=  0 I1Cent=   200000004 NGrid=           0
         NMat0=    1 NMatS0=      1 NMatT0=    0 NMatD0=    1 NMtDS0=    0 NMtDT0=    0
 Petite list used in FoFCou.
 Keep R1 ints in memory in canonical form, NReq=1274174209.
 Requested convergence on RMS density matrix=1.00D-08 within 128 cycles.
 Requested convergence on MAX density matrix=1.00D-06.
 Requested convergence on             energy=1.00D-06.
 No special actions if energy rises.
 Defaulting to unpruned grid for atomic number  79.
 Defaulting to unpruned grid for atomic number  79.
 Defaulting to unpruned grid for atomic number  79.
 Defaulting to unpruned grid for atomic number  79.
 Defaulting to unpruned grid for atomic number  79.
 Defaulting to unpruned grid for atomic number  79.
 Defaulting to unpruned grid for atomic number  79.
 Defaulting to unpruned grid for atomic number  79.
 SCF Done:  E(RB3LYP) =  -1474.97552680     A.U. after   15 cycles
            NFock= 15  Conv=0.85D-08     -V/T= 2.0715

 **********************************************************************

            Population analysis using the SCF density.

 **********************************************************************

 Orbital symmetries:
       Occupied  (A) (A) (A) (A) (A) (A) (A) (A) (A) (A) (A) (A)
                 (A) (A) (A) (A) (A) (A) (A) (A) (A) (A) (A) (A)
                 (A) (A) (A) (A) (A) (A) (A) (A) (A) (A) (A) (A)
                 (A) (A) (A) (A) (A) (A) (A) (A) (A) (A) (A) (A)
                 (A) (A) (A) (A) (A) (A) (A) (A) (A) (A) (A) (A)
                 (A) (A) (A) (A) (A) (A) (A) (A) (A) (A) (A) (A)
                 (A) (A) (A) (A) (A) (A) (A)
       Virtual   (A) (A) (A) (A) (A) (A) (A) (A) (A) (A) (A) (A)
                 (A) (A) (A) (A) (A) (A) (A) (A) (A) (A) (A) (A)
                 (A) (A) (A) (A) (A) (A) (A) (A) (A) (A) (A) (A)
                 (A) (A) (A) (A) (A) (A) (A) (A) (A) (A) (A) (A)
                 (A) (A) (A) (A) (A) (A) (A) (A) (A) (A) (A) (A)
                 (A) (A) (A) (A) (A) (A) (A) (A) (A) (A) (A) (A)
                 (A) (A) (A) (A) (A) (A) (A) (A) (A) (A) (A) (A)
                 (A) (A) (A) (A) (A) (A) (A) (A) (A) (A) (A) (A)
                 (A) (A) (A) (A) (A) (A) (A) (A) (A) (A) (A) (A)
                 (A) (A) (A) (A) (A) (A) (A) (A) (A) (A) (A) (A)
                 (A) (A) (A) (A) (A) (A) (A) (A) (A) (A) (A) (A)
                 (A) (A) (A) (A) (A) (A) (A) (A) (A) (A) (A) (A)
                 (A) (A) (A) (A) (A) (A) (A) (A) (A) (A) (A) (A)
                 (A) (A) (A) (A) (A) (A) (A) (A) (A) (A) (A) (A)
                 (A) (A) (A) (A) (A) (A) (A) (A) (A) (A) (A) (A)
                 (A) (A) (A) (A) (A) (A) (A) (A) (A) (A) (A) (A)
                 (A) (A) (A) (A) (A) (A) (A) (A) (A) (A) (A) (A)
                 (A) (A) (A) (A) (A) (A) (A) (A) (A) (A) (A) (A)
                 (A) (A) (A) (A) (A) (A) (A) (A) (A) (A) (A) (A)
                 (A) (A) (A) (A) (A) (A) (A) (A) (A)
 The electronic state is 1-A.
 Alpha  occ. eigenvalues --  -88.81502 -77.16102 -19.17672 -14.30983 -10.24913
 Alpha  occ. eigenvalues --  -10.22210 -10.22011 -10.20440 -10.20096 -10.19333
 Alpha  occ. eigenvalues --  -10.18223 -10.17902 -10.16259 -10.16015 -10.15781
 Alpha  occ. eigenvalues --  -10.15343  -7.89018  -6.63350  -5.85388  -5.85005
 Alpha  occ. eigenvalues --   -5.84579  -4.79727  -4.79429  -4.79201  -4.16827
 Alpha  occ. eigenvalues --   -2.31472  -2.29316  -2.29283  -0.98420  -0.89736
 Alpha  occ. eigenvalues --   -0.81411  -0.81323  -0.78513  -0.76432  -0.74136
 Alpha  occ. eigenvalues --   -0.70483  -0.68880  -0.65302  -0.64867  -0.62755
 Alpha  occ. eigenvalues --   -0.58395  -0.57938  -0.55983  -0.49615  -0.49355
 Alpha  occ. eigenvalues --   -0.48703  -0.48165  -0.47780  -0.46573  -0.45990
 Alpha  occ. eigenvalues --   -0.44987  -0.44149  -0.41159  -0.40908  -0.40794
 Alpha  occ. eigenvalues --   -0.40626  -0.40251  -0.39849  -0.38981  -0.38537
 Alpha  occ. eigenvalues --   -0.38269  -0.37580  -0.37123  -0.36211  -0.35467
 Alpha  occ. eigenvalues --   -0.34608  -0.33346  -0.32811  -0.32374  -0.30704
 Alpha  occ. eigenvalues --   -0.30234  -0.30186  -0.29187  -0.28672  -0.26996
 Alpha  occ. eigenvalues --   -0.26657  -0.20944  -0.20165  -0.17742
 Alpha virt. eigenvalues --   -0.04233  -0.02025   0.00171   0.00859   0.03192
 Alpha virt. eigenvalues --    0.03770   0.04170   0.06404   0.06923   0.07925
 Alpha virt. eigenvalues --    0.09333   0.09463   0.10445   0.10967   0.11736
 Alpha virt. eigenvalues --    0.12075   0.12564   0.13113   0.14100   0.14130
 Alpha virt. eigenvalues --    0.15193   0.15640   0.15883   0.16472   0.16719
 Alpha virt. eigenvalues --    0.16932   0.17571   0.18086   0.18412   0.18878
 Alpha virt. eigenvalues --    0.19292   0.19730   0.20287   0.20390   0.21108
 Alpha virt. eigenvalues --    0.22266   0.22787   0.23006   0.26786   0.28685
 Alpha virt. eigenvalues --    0.29626   0.31189   0.33084   0.33699   0.35408
 Alpha virt. eigenvalues --    0.36623   0.36987   0.37567   0.39370   0.39965
 Alpha virt. eigenvalues --    0.41428   0.42288   0.43236   0.45342   0.46766
 Alpha virt. eigenvalues --    0.47236   0.50436   0.52418   0.53744   0.53882
 Alpha virt. eigenvalues --    0.54053   0.55372   0.55855   0.56272   0.56793
 Alpha virt. eigenvalues --    0.57370   0.58213   0.58999   0.59409   0.60174
 Alpha virt. eigenvalues --    0.60729   0.61823   0.62743   0.63182   0.64194
 Alpha virt. eigenvalues --    0.64387   0.64650   0.65178   0.65858   0.66987
 Alpha virt. eigenvalues --    0.67846   0.69203   0.70600   0.71908   0.73498
 Alpha virt. eigenvalues --    0.74435   0.75950   0.78003   0.79617   0.80823
 Alpha virt. eigenvalues --    0.81146   0.82263   0.83021   0.83706   0.84375
 Alpha virt. eigenvalues --    0.85138   0.85721   0.86548   0.87229   0.87547
 Alpha virt. eigenvalues --    0.88210   0.89118   0.89427   0.90028   0.90168
 Alpha virt. eigenvalues --    0.90493   0.91272   0.91932   0.92347   0.92789
 Alpha virt. eigenvalues --    0.93282   0.94347   0.95026   0.95713   0.96495
 Alpha virt. eigenvalues --    0.97028   0.97314   0.97946   0.98409   0.99354
 Alpha virt. eigenvalues --    1.00020   1.00313   1.01243   1.02721   1.05201
 Alpha virt. eigenvalues --    1.06635   1.08076   1.09142   1.11944   1.13640
 Alpha virt. eigenvalues --    1.14100   1.14612   1.16153   1.18832   1.22270
 Alpha virt. eigenvalues --    1.28006   1.28791   1.31760   1.36080   1.38693
 Alpha virt. eigenvalues --    1.39159   1.42763   1.43087   1.43917   1.46014
 Alpha virt. eigenvalues --    1.47241   1.48395   1.49972   1.50892   1.51125
 Alpha virt. eigenvalues --    1.52496   1.54085   1.58007   1.58807   1.59930
 Alpha virt. eigenvalues --    1.61664   1.64694   1.74772   1.78586   1.79535
 Alpha virt. eigenvalues --    1.81842   1.82566   1.83419   1.86056   1.86579
 Alpha virt. eigenvalues --    1.88692   1.89775   1.90154   1.91373   1.91432
 Alpha virt. eigenvalues --    1.92911   1.92975   1.94440   1.94993   1.96071
 Alpha virt. eigenvalues --    1.96485   1.96546   1.97192   1.98192   1.99498
 Alpha virt. eigenvalues --    2.00144   2.00647   2.00681   2.01008   2.01317
 Alpha virt. eigenvalues --    2.01965   2.03024   2.03800   2.08622   2.08833
 Alpha virt. eigenvalues --    2.10810   2.11044   2.12060   2.13101   2.13931
 Alpha virt. eigenvalues --    2.16765   2.18003   2.19105   2.20992   2.23325
 Alpha virt. eigenvalues --    2.24096   2.25083   2.26337   2.27192   2.27621
 Alpha virt. eigenvalues --    2.27708   2.29725   2.30412   2.30500   2.31127
 Alpha virt. eigenvalues --    2.31480   2.31931   2.33572   2.35538   2.42102
 Alpha virt. eigenvalues --    2.45100   2.48912   2.52765   2.57630   2.58715
 Alpha virt. eigenvalues --    2.59464   2.61016   2.62981   2.64487   2.68106
 Alpha virt. eigenvalues --    2.74356   2.75303   2.77704   2.79830   2.84813
 Alpha virt. eigenvalues --    2.91910   3.10986   3.40988  15.58993  15.59703
 Alpha virt. eigenvalues --   15.68495  43.12648
          Condensed to atoms (all electrons):
               1          2          3          4          5          6
     1  Au  18.642282   0.306167   0.316525  -0.033461   0.002386  -0.006999
     2  S    0.306167  15.738682   0.000724   0.000041  -0.000029  -0.000058
     3  P    0.316525   0.000724  13.340649   0.292260  -0.035122  -0.010054
     4  C   -0.033461   0.000041   0.292260   5.265258   0.359741   0.000962
     5  C    0.002386  -0.000029  -0.035122   0.359741   5.069360   0.000039
     6  C   -0.006999  -0.000058  -0.010054   0.000962   0.000039   4.817142
     7  C   -0.035815  -0.000028   0.242464  -0.021346   0.001738  -0.001903
     8  C    0.002731   0.000000  -0.023365  -0.003934   0.000063  -0.000707
     9  H    0.002740  -0.000001  -0.024209   0.359588  -0.031743  -0.000009
    10  H   -0.000424  -0.000023  -0.021492   0.363483  -0.030829  -0.000010
    11  H   -0.001295   0.000000   0.004199  -0.028776   0.371984   0.000001
    12  H    0.002694  -0.000003  -0.002100  -0.035327   0.383454  -0.000034
    13  H    0.010450  -0.000056  -0.009921  -0.033024   0.383098  -0.000001
    14  H    0.002943  -0.000004  -0.011684   0.000017  -0.000001   0.363961
    15  H    0.012803  -0.000045  -0.009441  -0.000040  -0.000008   0.371096
    16  H   -0.001791  -0.000042  -0.017238  -0.002076  -0.000005   0.000112
    17  H   -0.000856  -0.000023  -0.037618   0.002015  -0.000021   0.000398
    18  H    0.000399   0.000000  -0.008326   0.002618  -0.000014   0.000012
    19  H   -0.000107   0.000000   0.003833   0.000063   0.000000  -0.000006
    20  H    0.000137   0.000000  -0.000533  -0.000523  -0.000009   0.000744
    21  C   -0.028404   0.264571   0.000310   0.000000   0.000000   0.000000
    22  C   -0.001707  -0.066534  -0.000075   0.000000   0.000000   0.000001
    23  C   -0.004302  -0.072033  -0.000015   0.000000   0.000000   0.000000
    24  C    0.000233   0.005064  -0.000007   0.000000   0.000000   0.000000
    25  H    0.004708  -0.001894  -0.000024   0.000000   0.000000   0.000000
    26  C   -0.001512   0.005539   0.000004   0.000000   0.000000   0.000000
    27  N    0.008172  -0.021386  -0.000063   0.000000   0.000000   0.000000
    28  C    0.000349   0.000390  -0.000001   0.000000   0.000000   0.000000
    29  H    0.000268  -0.000236   0.000000   0.000000   0.000000   0.000000
    30  H    0.000324  -0.000231   0.000000   0.000000   0.000000   0.000000
    31  H    0.002547   0.027134  -0.000018   0.000000   0.000000   0.000000
    32  H    0.001089   0.000855  -0.000001   0.000000   0.000000   0.000000
    33  H   -0.000099   0.000017   0.000000   0.000000   0.000000   0.000000
    34  C   -0.002240   0.000000   0.001912  -0.000027   0.000000   0.377703
    35  H    0.000200   0.000000  -0.000055   0.000000   0.000000  -0.024592
    36  H    0.000031   0.000000   0.000157  -0.000002   0.000000  -0.031064
    37  H    0.001482   0.000000   0.000021   0.000000  -0.000001  -0.030752
    38  O   -0.013935   0.000006   0.249163  -0.016810  -0.001017   0.228586
               7          8          9         10         11         12
     1  Au  -0.035815   0.002731   0.002740  -0.000424  -0.001295   0.002694
     2  S   -0.000028   0.000000  -0.000001  -0.000023   0.000000  -0.000003
     3  P    0.242464  -0.023365  -0.024209  -0.021492   0.004199  -0.002100
     4  C   -0.021346  -0.003934   0.359588   0.363483  -0.028776  -0.035327
     5  C    0.001738   0.000063  -0.031743  -0.030829   0.371984   0.383454
     6  C   -0.001903  -0.000707  -0.000009  -0.000010   0.000001  -0.000034
     7  C    5.332116   0.348201  -0.004065  -0.000757  -0.000059   0.000025
     8  C    0.348201   5.053542   0.001557  -0.000119   0.000001  -0.000005
     9  H   -0.004065   0.001557   0.536413  -0.028916  -0.003456  -0.003215
    10  H   -0.000757  -0.000119  -0.028916   0.529376  -0.004764   0.004072
    11  H   -0.000059   0.000001  -0.003456  -0.004764   0.558480  -0.029575
    12  H    0.000025  -0.000005  -0.003215   0.004072  -0.029575   0.520972
    13  H    0.000011  -0.000002   0.003846  -0.003435  -0.027227  -0.028171
    14  H    0.002782   0.000998  -0.000011   0.000000   0.000000   0.000001
    15  H   -0.000744   0.000002   0.000003   0.000000   0.000000  -0.000002
    16  H    0.361971  -0.033391  -0.000010   0.001018  -0.000001   0.000000
    17  H    0.378515  -0.032530  -0.000033   0.000024   0.000000   0.000000
    18  H   -0.034935   0.382445   0.003012   0.000303   0.000004   0.000002
    19  H   -0.029447   0.375660  -0.000066  -0.000019   0.000000   0.000000
    20  H   -0.036370   0.382347   0.000240   0.000014   0.000000   0.000000
    21  C   -0.000004   0.000000   0.000000   0.000000   0.000000   0.000000
    22  C    0.000000   0.000000   0.000000   0.000000   0.000000   0.000000
    23  C    0.000001   0.000000   0.000000   0.000000   0.000000   0.000000
    24  C    0.000000   0.000000   0.000000   0.000000   0.000000   0.000000
    25  H    0.000000   0.000000   0.000000   0.000000   0.000000   0.000000
    26  C    0.000000   0.000000   0.000000   0.000000   0.000000   0.000000
    27  N    0.000000   0.000000   0.000000   0.000000   0.000000   0.000000
    28  C    0.000000   0.000000   0.000000   0.000000   0.000000   0.000000
    29  H    0.000000   0.000000   0.000000   0.000000   0.000000   0.000000
    30  H    0.000000   0.000000   0.000000   0.000000   0.000000   0.000000
    31  H    0.000001   0.000000   0.000000   0.000000   0.000000   0.000000
    32  H    0.000000   0.000000   0.000000   0.000000   0.000000   0.000000
    33  H    0.000000   0.000000   0.000000   0.000000   0.000000   0.000000
    34  C    0.000068  -0.000006  -0.000002   0.000000   0.000000   0.000002
    35  H    0.000001   0.000000   0.000000   0.000000   0.000000   0.000000
    36  H   -0.000020  -0.000002   0.000001   0.000000   0.000000   0.000000
    37  H    0.000003   0.000000   0.000000   0.000000   0.000000   0.000001
    38  O   -0.020325  -0.001973  -0.000397   0.000568  -0.000023   0.001535
              13         14         15         16         17         18
     1  Au   0.010450   0.002943   0.012803  -0.001791  -0.000856   0.000399
     2  S   -0.000056  -0.000004  -0.000045  -0.000042  -0.000023   0.000000
     3  P   -0.009921  -0.011684  -0.009441  -0.017238  -0.037618  -0.008326
     4  C   -0.033024   0.000017  -0.000040  -0.002076   0.002015   0.002618
     5  C    0.383098  -0.000001  -0.000008  -0.000005  -0.000021  -0.000014
     6  C   -0.000001   0.363961   0.371096   0.000112   0.000398   0.000012
     7  C    0.000011   0.002782  -0.000744   0.361971   0.378515  -0.034935
     8  C   -0.000002   0.000998   0.000002  -0.033391  -0.032530   0.382445
     9  H    0.003846  -0.000011   0.000003  -0.000010  -0.000033   0.003012
    10  H   -0.003435   0.000000   0.000000   0.001018   0.000024   0.000303
    11  H   -0.027227   0.000000   0.000000  -0.000001   0.000000   0.000004
    12  H   -0.028171   0.000001  -0.000002   0.000000   0.000000   0.000002
    13  H    0.502516   0.000000   0.000000  -0.000001   0.000000   0.000000
    14  H    0.000000   0.625657  -0.053929  -0.000033   0.002603   0.000008
    15  H    0.000000  -0.053929   0.563454  -0.000001  -0.000343  -0.000002
    16  H   -0.000001  -0.000033  -0.000001   0.526700  -0.027540  -0.002818
    17  H    0.000000   0.002603  -0.000343  -0.027540   0.519877   0.004228
    18  H    0.000000   0.000008  -0.000002  -0.002818   0.004228   0.555573
    19  H    0.000000  -0.000043   0.000000  -0.004029  -0.003608  -0.030450
    20  H    0.000000   0.000012   0.000055   0.004186  -0.003772  -0.028945
    21  C    0.000000   0.000000  -0.000004  -0.000001  -0.000004   0.000000
    22  C    0.000000   0.000000  -0.000007   0.000000  -0.000002   0.000000
    23  C    0.000000   0.000000   0.000000   0.000001   0.000001   0.000000
    24  C    0.000000   0.000000  -0.000001   0.000000  -0.000001   0.000000
    25  H    0.000000   0.000000  -0.000003   0.000000   0.000000   0.000000
    26  C    0.000000   0.000000   0.000000   0.000000   0.000000   0.000000
    27  N    0.000000   0.000000   0.000000  -0.000001   0.000000   0.000000
    28  C    0.000000   0.000000   0.000000   0.000000   0.000000   0.000000
    29  H    0.000000   0.000000   0.000000   0.000000   0.000000   0.000000
    30  H    0.000000   0.000000   0.000000   0.000000   0.000000   0.000000
    31  H    0.000000   0.000000   0.000000  -0.000001   0.000000   0.000000
    32  H    0.000000   0.000000   0.000000   0.000000   0.000000   0.000000
    33  H    0.000000   0.000000   0.000000   0.000000   0.000000   0.000000
    34  C    0.000000  -0.041850  -0.038007   0.000000  -0.000020   0.000001
    35  H    0.000000  -0.000502  -0.000428   0.000000   0.000001   0.000000
    36  H    0.000000  -0.007121   0.005395   0.000000  -0.000003  -0.000001
    37  H    0.000000   0.005576  -0.007152   0.000000   0.000001   0.000000
    38  O   -0.000075  -0.032023  -0.029800   0.000643  -0.001178  -0.000205
              19         20         21         22         23         24
     1  Au  -0.000107   0.000137  -0.028404  -0.001707  -0.004302   0.000233
     2  S    0.000000   0.000000   0.264571  -0.066534  -0.072033   0.005064
     3  P    0.003833  -0.000533   0.000310  -0.000075  -0.000015  -0.000007
     4  C    0.000063  -0.000523   0.000000   0.000000   0.000000   0.000000
     5  C    0.000000  -0.000009   0.000000   0.000000   0.000000   0.000000
     6  C   -0.000006   0.000744   0.000000   0.000001   0.000000   0.000000
     7  C   -0.029447  -0.036370  -0.000004   0.000000   0.000001   0.000000
     8  C    0.375660   0.382347   0.000000   0.000000   0.000000   0.000000
     9  H   -0.000066   0.000240   0.000000   0.000000   0.000000   0.000000
    10  H   -0.000019   0.000014   0.000000   0.000000   0.000000   0.000000
    11  H    0.000000   0.000000   0.000000   0.000000   0.000000   0.000000
    12  H    0.000000   0.000000   0.000000   0.000000   0.000000   0.000000
    13  H    0.000000   0.000000   0.000000   0.000000   0.000000   0.000000
    14  H   -0.000043   0.000012   0.000000   0.000000   0.000000   0.000000
    15  H    0.000000   0.000055  -0.000004  -0.000007   0.000000  -0.000001
    16  H   -0.004029   0.004186  -0.000001   0.000000   0.000001   0.000000
    17  H   -0.003608  -0.003772  -0.000004  -0.000002   0.000001  -0.000001
    18  H   -0.030450  -0.028945   0.000000   0.000000   0.000000   0.000000
    19  H    0.554776  -0.030543   0.000000   0.000000   0.000000   0.000000
    20  H   -0.030543   0.535068   0.000000   0.000000   0.000000   0.000000
    21  C    0.000000   0.000000   5.109533   0.523438   0.488604  -0.039546
    22  C    0.000000   0.000000   0.523438   4.923214  -0.016541   0.528458
    23  C    0.000000   0.000000   0.488604  -0.016541   4.586140  -0.035719
    24  C    0.000000   0.000000  -0.039546   0.528458  -0.035719   4.887117
    25  H    0.000000   0.000000  -0.039266   0.356556   0.004020  -0.044504
    26  C    0.000000   0.000000  -0.051109  -0.044352   0.523768  -0.040088
    27  N    0.000000   0.000000  -0.074403   0.004760   0.331545   0.000585
    28  C    0.000000   0.000000  -0.038825  -0.019909  -0.009236   0.547148
    29  H    0.000000   0.000000   0.004804  -0.043213   0.000624   0.359307
    30  H    0.000000   0.000000   0.005860   0.000346  -0.045581   0.004897
    31  H    0.000000   0.000000  -0.009788   0.000333  -0.025221  -0.000029
    32  H    0.000000   0.000000   0.006452  -0.000090  -0.026704  -0.000005
    33  H    0.000000   0.000000   0.000746   0.004770   0.004110  -0.043560
    34  C    0.000000  -0.000068   0.000000   0.000000   0.000000   0.000000
    35  H    0.000000  -0.000004   0.000000   0.000000   0.000000   0.000000
    36  H    0.000000   0.000125   0.000000   0.000000   0.000000   0.000000
    37  H    0.000000  -0.000002   0.000000   0.000000   0.000000   0.000000
    38  O    0.000015   0.003750   0.000000   0.000000   0.000000   0.000000
              25         26         27         28         29         30
     1  Au   0.004708  -0.001512   0.008172   0.000349   0.000268   0.000324
     2  S   -0.001894   0.005539  -0.021386   0.000390  -0.000236  -0.000231
     3  P   -0.000024   0.000004  -0.000063  -0.000001   0.000000   0.000000
     4  C    0.000000   0.000000   0.000000   0.000000   0.000000   0.000000
     5  C    0.000000   0.000000   0.000000   0.000000   0.000000   0.000000
     6  C    0.000000   0.000000   0.000000   0.000000   0.000000   0.000000
     7  C    0.000000   0.000000   0.000000   0.000000   0.000000   0.000000
     8  C    0.000000   0.000000   0.000000   0.000000   0.000000   0.000000
     9  H    0.000000   0.000000   0.000000   0.000000   0.000000   0.000000
    10  H    0.000000   0.000000   0.000000   0.000000   0.000000   0.000000
    11  H    0.000000   0.000000   0.000000   0.000000   0.000000   0.000000
    12  H    0.000000   0.000000   0.000000   0.000000   0.000000   0.000000
    13  H    0.000000   0.000000   0.000000   0.000000   0.000000   0.000000
    14  H    0.000000   0.000000   0.000000   0.000000   0.000000   0.000000
    15  H   -0.000003   0.000000   0.000000   0.000000   0.000000   0.000000
    16  H    0.000000   0.000000  -0.000001   0.000000   0.000000   0.000000
    17  H    0.000000   0.000000   0.000000   0.000000   0.000000   0.000000
    18  H    0.000000   0.000000   0.000000   0.000000   0.000000   0.000000
    19  H    0.000000   0.000000   0.000000   0.000000   0.000000   0.000000
    20  H    0.000000   0.000000   0.000000   0.000000   0.000000   0.000000
    21  C   -0.039266  -0.051109  -0.074403  -0.038825   0.004804   0.005860
    22  C    0.356556  -0.044352   0.004760  -0.019909  -0.043213   0.000346
    23  C    0.004020   0.523768   0.331545  -0.009236   0.000624  -0.045581
    24  C   -0.044504  -0.040088   0.000585   0.547148   0.359307   0.004897
    25  H    0.582359   0.000870  -0.000120   0.004511  -0.006155   0.000015
    26  C    0.000870   4.984464  -0.069340   0.552153   0.004768   0.348491
    27  N   -0.000120  -0.069340   6.992739   0.004507   0.000004  -0.007987
    28  C    0.004511   0.552153   0.004507   4.828957  -0.044327  -0.041908
    29  H   -0.006155   0.004768   0.000004  -0.044327   0.618941  -0.000193
    30  H    0.000015   0.348491  -0.007987  -0.041908  -0.000193   0.630368
    31  H   -0.000007   0.005566   0.300729  -0.000121   0.000000  -0.000146
    32  H    0.000003  -0.009488   0.310644  -0.000043   0.000000   0.005106
    33  H   -0.000185  -0.041087  -0.000120   0.355405  -0.005753  -0.006471
    34  C    0.000000   0.000000   0.000000   0.000000   0.000000   0.000000
    35  H    0.000000   0.000000   0.000000   0.000000   0.000000   0.000000
    36  H    0.000000   0.000000   0.000000   0.000000   0.000000   0.000000
    37  H    0.000000   0.000000   0.000000   0.000000   0.000000   0.000000
    38  O    0.000000   0.000000   0.000000   0.000000   0.000000   0.000000
              31         32         33         34         35         36
     1  Au   0.002547   0.001089  -0.000099  -0.002240   0.000200   0.000031
     2  S    0.027134   0.000855   0.000017   0.000000   0.000000   0.000000
     3  P   -0.000018  -0.000001   0.000000   0.001912  -0.000055   0.000157
     4  C    0.000000   0.000000   0.000000  -0.000027   0.000000  -0.000002
     5  C    0.000000   0.000000   0.000000   0.000000   0.000000   0.000000
     6  C    0.000000   0.000000   0.000000   0.377703  -0.024592  -0.031064
     7  C    0.000001   0.000000   0.000000   0.000068   0.000001  -0.000020
     8  C    0.000000   0.000000   0.000000  -0.000006   0.000000  -0.000002
     9  H    0.000000   0.000000   0.000000  -0.000002   0.000000   0.000001
    10  H    0.000000   0.000000   0.000000   0.000000   0.000000   0.000000
    11  H    0.000000   0.000000   0.000000   0.000000   0.000000   0.000000
    12  H    0.000000   0.000000   0.000000   0.000002   0.000000   0.000000
    13  H    0.000000   0.000000   0.000000   0.000000   0.000000   0.000000
    14  H    0.000000   0.000000   0.000000  -0.041850  -0.000502  -0.007121
    15  H    0.000000   0.000000   0.000000  -0.038007  -0.000428   0.005395
    16  H   -0.000001   0.000000   0.000000   0.000000   0.000000   0.000000
    17  H    0.000000   0.000000   0.000000  -0.000020   0.000001  -0.000003
    18  H    0.000000   0.000000   0.000000   0.000001   0.000000  -0.000001
    19  H    0.000000   0.000000   0.000000   0.000000   0.000000   0.000000
    20  H    0.000000   0.000000   0.000000  -0.000068  -0.000004   0.000125
    21  C   -0.009788   0.006452   0.000746   0.000000   0.000000   0.000000
    22  C    0.000333  -0.000090   0.004770   0.000000   0.000000   0.000000
    23  C   -0.025221  -0.026704   0.004110   0.000000   0.000000   0.000000
    24  C   -0.000029  -0.000005  -0.043560   0.000000   0.000000   0.000000
    25  H   -0.000007   0.000003  -0.000185   0.000000   0.000000   0.000000
    26  C    0.005566  -0.009488  -0.041087   0.000000   0.000000   0.000000
    27  N    0.300729   0.310644  -0.000120   0.000000   0.000000   0.000000
    28  C   -0.000121  -0.000043   0.355405   0.000000   0.000000   0.000000
    29  H    0.000000   0.000000  -0.005753   0.000000   0.000000   0.000000
    30  H   -0.000146   0.005106  -0.006471   0.000000   0.000000   0.000000
    31  H    0.374552  -0.027682   0.000003   0.000000   0.000000   0.000000
    32  H   -0.027682   0.428098  -0.000010   0.000000   0.000000   0.000000
    33  H    0.000003  -0.000010   0.616841   0.000000   0.000000   0.000000
    34  C    0.000000   0.000000   0.000000   5.071709   0.365911   0.378011
    35  H    0.000000   0.000000   0.000000   0.365911   0.551621  -0.028066
    36  H    0.000000   0.000000   0.000000   0.378011  -0.028066   0.546954
    37  H    0.000000   0.000000   0.000000   0.382127  -0.027203  -0.030139
    38  O    0.000000   0.000000   0.000000  -0.031638   0.002164   0.001229
              37         38
     1  Au   0.001482  -0.013935
     2  S    0.000000   0.000006
     3  P    0.000021   0.249163
     4  C    0.000000  -0.016810
     5  C   -0.000001  -0.001017
     6  C   -0.030752   0.228586
     7  C    0.000003  -0.020325
     8  C    0.000000  -0.001973
     9  H    0.000000  -0.000397
    10  H    0.000000   0.000568
    11  H    0.000000  -0.000023
    12  H    0.000001   0.001535
    13  H    0.000000  -0.000075
    14  H    0.005576  -0.032023
    15  H   -0.007152  -0.029800
    16  H    0.000000   0.000643
    17  H    0.000001  -0.001178
    18  H    0.000000  -0.000205
    19  H    0.000000   0.000015
    20  H   -0.000002   0.003750
    21  C    0.000000   0.000000
    22  C    0.000000   0.000000
    23  C    0.000000   0.000000
    24  C    0.000000   0.000000
    25  H    0.000000   0.000000
    26  C    0.000000   0.000000
    27  N    0.000000   0.000000
    28  C    0.000000   0.000000
    29  H    0.000000   0.000000
    30  H    0.000000   0.000000
    31  H    0.000000   0.000000
    32  H    0.000000   0.000000
    33  H    0.000000   0.000000
    34  C    0.382127  -0.031638
    35  H   -0.027203   0.002164
    36  H   -0.030139   0.001229
    37  H    0.529104   0.000797
    38  O    0.000797   8.242441
 Mulliken charges:
               1
     1  Au  -0.188714
     2  S   -0.186564
     3  P    0.759138
     4  C   -0.470699
     5  C   -0.473065
     6  C   -0.054568
     7  C   -0.482079
     8  C   -0.451515
     9  H    0.188733
    10  H    0.191932
    11  H    0.160507
    12  H    0.185674
    13  H    0.201993
    14  H    0.142643
    15  H    0.187147
    16  H    0.194346
    17  H    0.199891
    18  H    0.157090
    19  H    0.163970
    20  H    0.174092
    21  C   -0.122965
    22  C   -0.149445
    23  C    0.296539
    24  C   -0.129350
    25  H    0.139115
    26  C   -0.168646
    27  N   -0.780266
    28  C   -0.139047
    29  H    0.111161
    30  H    0.107111
    31  H    0.352150
    32  H    0.311778
    33  H    0.115393
    34  C   -0.463588
    35  H    0.160952
    36  H    0.164516
    37  H    0.176137
    38  O   -0.581499
 Sum of Mulliken charges =   0.00000
 Mulliken charges with hydrogens summed into heavy atoms:
               1
     1  Au  -0.188714
     2  S   -0.186564
     3  P    0.759138
     4  C   -0.090034
     5  C    0.075109
     6  C    0.275223
     7  C   -0.087842
     8  C    0.043637
    21  C   -0.122965
    22  C   -0.010330
    23  C    0.296539
    24  C   -0.018189
    26  C   -0.061535
    27  N   -0.116339
    28  C   -0.023654
    34  C    0.038017
    38  O   -0.581499
 Electronic spatial extent (au):  <R**2>=           7876.1507
 Charge=              0.0000 electrons
 Dipole moment (field-independent basis, Debye):
    X=              6.9335    Y=              1.3588    Z=              5.2125  Tot=              8.7801
 Quadrupole moment (field-independent basis, Debye-Ang):
   XX=           -140.6271   YY=           -125.6074   ZZ=           -130.2602
   XY=             -3.2856   XZ=             -3.7053   YZ=             -7.1268
 Traceless Quadrupole moment (field-independent basis, Debye-Ang):
   XX=             -8.4622   YY=              6.5575   ZZ=              1.9047
   XY=             -3.2856   XZ=             -3.7053   YZ=             -7.1268
 Octapole moment (field-independent basis, Debye-Ang**2):
  XXX=            108.9248  YYY=            -49.1880  ZZZ=            -21.0043  XYY=             41.0395
  XXY=            -16.1053  XXZ=             33.7936  XZZ=             20.6813  YZZ=            -21.3266
  YYZ=            -14.5410  XYZ=              8.0826
 Hexadecapole moment (field-independent basis, Debye-Ang**3):
 XXXX=          -7568.0743 YYYY=          -1939.8748 ZZZZ=          -1357.4966 XXXY=            -89.3950
 XXXZ=           -126.0699 YYYX=             18.3414 YYYZ=            -25.3629 ZZZX=            -52.9304
 ZZZY=             -4.0131 XXYY=          -1460.8830 XXZZ=          -1356.6433 YYZZ=           -543.3876
 XXYZ=            -32.5538 YYXZ=            -35.9605 ZZXY=             36.5533
 N-N= 1.639940849588D+03 E-N=-6.712775802208D+03  KE= 1.376575079897D+03
   1 Symmetry operations used in ECPInt.
 ECPInt:  NShTT=    7503 NPrTT=   41422 LenC2=    6431 LenP2D=   20899.
 LDataN:  DoStor=T MaxTD1= 8 Len=  415
 Calling FoFJK, ICntrl=      2127 FMM=F ISym2X=0 I1Cent= 0 IOpClX= 0 NMat=1 NMatS=1 NMatT=0.
 Defaulting to unpruned grid for atomic number  79.
 Defaulting to unpruned grid for atomic number  79.
 Defaulting to unpruned grid for atomic number  79.
 Defaulting to unpruned grid for atomic number  79.
 Defaulting to unpruned grid for atomic number  79.
 Defaulting to unpruned grid for atomic number  79.
 Defaulting to unpruned grid for atomic number  79.
 Defaulting to unpruned grid for atomic number  79.
 ***** Axes restored to original set *****
 -------------------------------------------------------------------
 Center     Atomic                   Forces (Hartrees/Bohr)
 Number     Number              X              Y              Z
 -------------------------------------------------------------------
      1       79          -0.002164037    0.001375980    0.002050561
      2       16          -0.001157447    0.000695506   -0.001104755
      3       15          -0.016949463    0.016001953    0.039686289
      4        6          -0.006783479    0.003118905    0.009536634
      5        6          -0.000348352   -0.000723709    0.001761334
[...]
 ,-0.00000795,0.00000280,0.00001513,0.00000496,0.00000342,0.00000811,-0
 .00000369,0.00000792,0.00000003,0.00000684,-0.00000284,-0.00000411,0.0
 0000361,0.00000755,-0.00001391,0.00000048,0.00000327,0.00000225,0.0000
 0365,-0.00000195,-0.00000085,0.00000032,-0.00000112,0.00000018,-0.0000
 0091,0.00000023,0.00000468,-0.00000722,-0.00000471,0.00000035,0.000000
 62,0.00000024,0.00000012,0.00000096,0.54987352,0.00000744,0.00002156,-
 0.00024441,0.00016258,-0.00009232,0.00005865,-0.00107520,-0.00090805,-
 0.00124986,0.00031911,-0.00005979,-0.00066320,0.00009742,0.00005725,-0
 .00019734,0.01321155,-0.08588534,-0.00491076,-0.00011930,-0.00038682,-
 0.00041811,0.00005515,0.00013504,0.00004099,0.00000015,0.00000761,0.00
 002565,-0.00021086,-0.00019803,-0.00003567,-0.00002731,-0.00001114,0.0
 0006461,-0.00005722,-0.00004766,0.00003879,0.00000358,0.00000110,0.000
 02342,-0.01948256,0.00736638,0.02214226,0.01434443,-0.00225119,-0.0164
 5235,0.00010226,0.00020883,-0.00006808,0.00020174,0.00013408,-0.000157
 67,0.00003616,-0.00001100,0.00002650,-0.00001611,0.00001506,-0.0000458
 5,-0.00007394,-0.00005698,0.00004301,-0.00005213,-0.00005009,0.0000270
 9,-0.00000210,0.00000198,-0.00001239,0.00001493,0.00001628,-0.00000989
 ,0.00000661,0.00002184,-0.00001411,-0.00000423,-0.00000999,0.00000184,
 -0.00000700,-0.00000736,-0.00000647,0.00002052,-0.00000023,-0.00000485
 ,0.00000818,0.00002013,0.00000687,0.00000931,0.00000499,0.00000752,0.0
 0000412,0.00000226,-0.00000370,-0.00001469,0.00000317,0.00002382,-0.00
 000169,0.00000605,0.00000078,0.00000614,0.00000308,-0.00000123,0.01285
 686,0.58497781,0.00011283,0.00000278,0.00012775,-0.00000638,0.00001296
 ,0.00007007,-0.00232489,0.00041102,-0.00157307,0.00079019,-0.00046109,
 -0.00064003,-0.00009266,0.00006143,0.00005612,0.06144308,-0.00739176,-
 0.13342573,0.00053371,-0.00051195,-0.00059746,0.00009321,-0.00007862,0
 .00002759,0.00007036,0.00011020,0.00009552,-0.00028139,-0.00021235,-0.
 00008211,0.00000113,-0.00004199,-0.00000327,0.00002083,0.00005191,0.00
 001974,0.00001356,-0.00003261,-0.00002261,0.00968964,-0.00200993,-0.00
 778450,-0.00521355,0.00166782,0.00935788,0.00000747,0.00029157,-0.0002
 0191,0.00000948,0.00005489,-0.00003558,-0.00000545,0.00000274,0.000021
 13,-0.00000907,0.00001927,-0.00000856,-0.00003514,-0.00002562,0.000025
 90,0.00002208,0.00000979,-0.00002651,-0.00000221,0.00000512,-0.0000067
 1,-0.00000876,-0.00000932,-0.00000684,-0.00000534,0.00000696,0.0000080
 2,0.00001423,-0.00000057,0.00001266,0.00000466,0.00000618,0.00000856,-
 0.00000154,-0.00000023,0.00001691,0.00000118,-0.00000784,-0.00000735,-
 0.00000340,-0.00000347,-0.00000169,-0.00000386,-0.00000069,0.00000236,
 0.00000517,0.00000178,-0.00002114,-0.00000390,-0.00000448,-0.00000069,
 -0.00000258,-0.00000214,0.00000197,0.04573097,-0.01182245,0.53647998,-
 0.00001255,-0.00002982,-0.00002996,-0.00002336,0.00001137,-0.00002134,
 0.00101107,-0.00000605,0.00038015,-0.00028976,0.00017200,0.00035577,0.
 00000453,-0.00002372,0.00008334,0.01207024,0.00982971,0.01510036,-0.00
 012079,0.00015127,0.00017627,-0.00004906,0.00003252,0.00001921,-0.0000
 1820,-0.00003191,-0.00000286,0.00013459,0.00011210,0.00003424,0.000007
 14,0.00001943,-0.00002231,-0.00000751,0.00001771,-0.00002720,0.0000061
 3,-0.00000088,-0.00001445,0.00068148,-0.00056025,-0.00070038,0.0006116
 9,0.00005947,-0.00099319,-0.00000656,-0.00009184,0.00005657,-0.0000052
 4,-0.00001664,0.00000879,0.00000256,0.00000186,-0.00000077,0.00001673,
 -0.00000936,-0.00000738,0.00000052,-0.00000963,-0.00000324,0.00000828,
 0.00000949,-0.00000223,-0.00000403,-0.00000629,0.00001508,-0.00000074,
 0.00000573,0.00000789,0.00000390,-0.00000410,-0.00000349,-0.00000314,0
 .00000610,-0.00000520,-0.00000086,-0.00000322,-0.00000356,0.00000125,-
 0.00000871,-0.00001125,-0.00000264,-0.00000129,0.00000399,-0.00000418,
 -0.00000151,-0.00000047,0.00000068,-0.00000056,-0.00000189,-0.00000134
 ,0.00000113,0.00000397,-0.00000064,0.00000144,0.00000069,0.00000080,0.
 00000127,-0.00000110,-0.10410294,-0.05376656,-0.09307168,0.10883123,-0
 .00001359,0.00000402,-0.00000221,0.00004622,-0.00001808,0.00002286,-0.
 00054101,0.00073249,0.00028214,0.00005100,-0.00003541,-0.00000828,-0.0
 0003984,0.00000932,0.00004156,-0.00342745,-0.00432134,-0.00259367,0.00
 013948,-0.00014002,-0.00018953,0.00002730,-0.00003113,-0.00000228,0.00
 001027,0.00000903,0.00001636,-0.00000572,-0.00000645,-0.00001155,0.000
 00169,-0.00001243,-0.00001877,0.00001814,0.00003538,-0.00000380,0.0000
 1029,-0.00000717,-0.00001311,0.00024050,0.00019933,-0.00010844,0.00007
 532,-0.00000503,0.00030618,-0.00000275,0.00007312,-0.00006114,-0.00001
 065,-0.00000163,0.00001395,-0.00000522,-0.00000140,0.00000300,-0.00000
 505,0.00000830,0.00000482,0.00000231,0.00000178,-0.00000173,-0.0000106
 5,-0.00001719,0.00001969,0.00001613,0.00000394,-0.00002895,0.00000017,
 0.00000390,-0.00000446,0.00000067,0.00000207,0.00000488,0.00000048,-0.
 00000323,0.00000162,0.00000027,-0.00000042,0.00000470,0.00000655,-0.00
 000075,0.00000746,0.00000336,0.00000153,0.00000017,0.00000208,0.000005
 14,-0.00000090,-0.00000077,0.00000144,0.00000033,-0.00000361,0.0000014
 4,0.00000136,-0.00000289,0.00000209,0.00000070,-0.00000118,0.00000037,
 0.00000073,-0.05282073,-0.10116292,-0.09203843,0.05833788,0.10544177,-
 0.00000853,0.00001932,-0.00011061,0.00013156,-0.00004906,0.00006479,-0
 .00120439,0.00037578,0.00059026,0.00028208,-0.00012563,-0.00032560,-0.
 00000964,0.00003258,-0.00005010,-0.01457673,-0.00912674,-0.01553150,0.
 00012611,-0.00018699,-0.00022176,0.00003269,0.00001003,0.00003022,0.00
 002079,0.00003143,0.00003995,-0.00012401,-0.00010302,-0.00003048,-0.00
 001303,-0.00002657,0.00001195,0.00000634,0.00000745,0.00000460,0.00000
 600,-0.00000599,0.00000646,-0.00004913,0.00085759,0.00049195,0.0001673
 6,-0.00019984,0.00078199,0.00001121,0.00010261,-0.00006187,0.00000612,
 0.00001492,0.00000155,-0.00000078,-0.00000412,0.00000357,-0.00000374,0
 .00001475,-0.00002964,-0.00000314,-0.00003902,0.00002163,-0.00004549,-
 0.00005264,0.00003813,0.00001757,0.00000336,-0.00004436,0.00001069,0.0
 0001539,-0.00001038,0.00000111,0.00001293,-0.00000958,-0.00000047,-0.0
 0001558,0.00000390,-0.00000320,-0.00000386,0.00000156,0.00001922,0.000
 00344,0.00000831,0.00000833,0.00001493,0.00000524,0.00001202,0.0000101
 1,0.00000616,0.00000190,0.00000345,-0.00000181,-0.00001318,0.00000140,
 0.00001586,-0.00000461,0.00000536,0.00000126,0.00000439,0.00000256,-0.
 00000087,-0.09109314,-0.09156496,-0.20911123,0.10050368,0.10208595,0.2
 2639697,0.00005563,0.00000501,0.00011844,-0.00007152,0.00003844,0.0000
 1742,0.00002885,-0.00004209,-0.00045225,0.00003943,-0.00006445,0.00007
 175,-0.00000617,-0.00000338,0.00001645,-0.01950197,0.01451521,-0.00928
 992,0.00004727,-0.00000741,0.00001851,-0.00011480,0.00001999,0.0001097
 9,0.00002870,0.00003405,0.00001683,0.00000545,0.00002227,0.00000582,0.
 00000625,0.00000497,0.00000135,-0.00000419,-0.00000382,0.00000057,-0.0
 0000285,-0.00001391,-0.00000276,0.00073655,-0.00046961,-0.00051693,-0.
 00165486,0.00017092,0.00410887,0.00002150,-0.00002405,0.00000321,-0.00
 001096,0.00002090,-0.00000306,0.00001806,-0.00001728,-0.00003374,0.000
 02992,-0.00002217,-0.00000046,0.00005175,-0.00000412,0.00001799,0.0000
 2869,0.00003018,-0.00002433,-0.00000044,0.00000973,-0.00000108,-0.0000
 1459,-0.00003091,-0.00001297,-0.00001319,-0.00000294,0.00001794,0.0000
 1006,-0.00000091,0.00001092,0.00000947,0.00001344,0.00000977,-0.000016
 83,0.00001862,0.00002325,-0.00000038,-0.00001324,-0.00001681,-0.000001
 36,-0.00000416,-0.00000410,-0.00000482,-0.00000127,0.00000662,0.000013
 75,-0.00000307,-0.00002419,0.00000396,-0.00000833,-0.00000241,-0.00000
 631,-0.00000520,0.00000268,-0.18925523,0.11484673,-0.06477654,-0.00999
 975,0.00816017,-0.00385795,0.20569833,-0.00001250,-0.00001064,0.000009
 74,-0.00002598,0.00001776,-0.00002303,0.00014886,-0.00013669,-0.000126
 67,0.00000595,0.00001069,-0.00000905,-0.00002879,-0.00000113,0.0000060
 6,0.00392417,-0.00372997,0.00102920,-0.00002913,0.00002585,0.00001940,
 0.00003742,-0.00004358,-0.00005327,-0.00002950,-0.00000624,-0.00005274
 ,-0.00001424,0.00001500,-0.00000264,0.00000126,-0.00000743,-0.00001734
 ,0.00004697,-0.00002209,0.00002699,-0.00001351,0.00002055,0.00001821,-
 0.00049271,0.00071531,-0.00077608,0.00055693,0.00135642,-0.00071828,-0
 .00001533,-0.00000932,0.00000454,-0.00002262,-0.00001054,0.00001036,-0
 .00000416,-0.00000575,-0.00001320,-0.00002402,0.00000802,0.00003072,0.
 00000939,0.00006243,-0.00001171,0.00000389,0.00000059,-0.00000917,-0.0
 0000388,-0.00000389,0.00000876,0.00000307,0.00000895,0.00000928,0.0000
 0317,-0.00000323,-0.00000309,-0.00000256,0.00000160,-0.00000322,-0.000
 00227,-0.00000369,-0.00000298,0.00000123,-0.00000810,-0.00001013,-0.00
 000146,0.00000025,0.00000375,-0.00000212,-0.00000070,-0.00000059,0.000
 00114,-0.00000005,-0.00000174,-0.00000131,0.00000131,0.00000337,-0.000
 00042,0.00000202,0.00000070,0.00000040,0.00000102,-0.00000044,0.115168
 71,-0.14706966,0.05560175,-0.01216653,0.01035773,-0.00426845,-0.127881
 13,0.15393166,-0.00002239,-0.00006180,-0.00010714,0.00000602,-0.000002
 37,-0.00000366,0.00053663,-0.00029975,-0.00017174,-0.00012504,0.000111
 43,0.00005248,0.00001493,-0.00001249,-0.00000781,0.02099452,-0.0175948
 1,0.00844163,-0.00011441,0.00008386,0.00010061,0.00006640,-0.00001797,
 -0.00010352,-0.00004170,-0.00004347,-0.00003702,0.00002861,0.00002245,
 0.00001310,0.00000075,0.00001013,0.00000533,-0.00001353,-0.00000978,0.
 00000379,0.00000123,0.00001182,-0.00000253,-0.00110918,0.00013763,0.00
 111475,0.00332070,-0.00110211,-0.00366642,-0.00001901,-0.00003005,0.00
 003155,0.00000651,-0.00001012,-0.00000450,-0.00001041,0.00001119,0.000
 01676,-0.00002605,0.00001061,0.00002558,-0.00002478,0.00003748,-0.0000
 2825,-0.00000953,-0.00000356,0.00001793,0.00000896,0.00000250,-0.00000
 718,-0.00000203,-0.00000218,-0.00000260,-0.00000152,-0.00000077,0.0000
 0357,-0.00000320,-0.00000058,-0.00000304,0.00000073,0.00000111,-0.0000
 0121,0.00000076,0.00000394,-0.00000238,0.00000044,0.00000082,-0.000001
 54,0.00000187,0.00000192,-0.00000027,0.00000107,0.00000026,0.00000007,
 -0.00000223,-0.00000139,0.00000775,0.00000228,0.00000093,0.00000044,0.
 00000011,0.00000004,0.00000006,-0.06733671,0.05605989,-0.08059880,-0.0
 1760862,0.01693733,-0.00792807,0.06966817,-0.06049895,0.08424279,0.000
 03607,0.00005341,0.00000755,-0.00003452,0.00003155,-0.00001002,0.00014
 293,-0.00024435,-0.00036945,-0.00002044,0.00001237,0.00005034,-0.00002
 353,-0.00000257,0.00004820,-0.01184550,-0.02287693,0.00724625,-0.00006
 446,-0.00005950,-0.00005482,-0.00000254,0.00003095,-0.00000039,-0.0000
 0644,0.00001084,-0.00001531,0.00001523,0.00002741,0.00000222,0.0000054
 7,0.00000487,-0.00003402,0.00006357,-0.00000906,0.00001286,-0.00001585
 ,0.00001174,0.00001938,-0.00226044,0.00161163,0.00395642,0.00067468,-0
 .00034508,-0.00086526,0.00003103,0.00003101,0.00000514,0.00006159,0.00
 003422,-0.00005243,0.00001344,-0.00000169,0.00000316,-0.00000644,-0.00
 000104,-0.00000046,-0.00002050,0.00000647,0.00000798,-0.00000483,-0.00
 000518,-0.00002227,-0.00001196,0.00000128,0.00000549,0.00000657,-0.000
 00987,-0.00000737,-0.00000443,0.00000641,-0.00000174,0.00000312,-0.000
 00850,0.00000586,0.00000069,0.00000370,-0.00000266,-0.00000767,0.00001
 666,0.00000731,0.00000092,0.00000225,-0.00000503,0.00000456,-0.0000017
 2,0.00000257,0.00000075,0.00000018,0.00000117,0.00000190,-0.00000283,0
 .00000037,0.00000442,-0.00000379,-0.00000081,0.00000115,-0.00000116,0.
 00000025,-0.09351816,-0.09055289,0.03323485,-0.00624984,-0.01161051,0.
 00516299,0.01175418,0.02138468,-0.00729309,0.09968005,0.00000179,-0.00
 000431,0.00004379,-0.00002197,0.00001554,-0.00000722,0.00025295,0.0000
 2616,-0.00009342,-0.00005814,0.00002031,0.00008260,-0.00000679,-0.0000
 1620,0.00004535,0.00302116,0.00651476,-0.00324540,0.00001086,0.0000001
 5,-0.00000094,0.00002193,-0.00001208,-0.00003020,-0.00000388,-0.000009
 89,0.00000949,0.00003432,0.00002269,0.00000653,0.00000503,0.00001031,-
 0.00000339,-0.00000709,0.00002868,-0.00003068,0.00000770,-0.00000781,-
 0.00001298,0.00100437,0.00105121,-0.00191098,-0.00045359,0.00096364,0.
 00043060,-0.00002169,-0.00000345,-0.00000149,-0.00000335,-0.00001222,0
 .00000690,-0.00000338,0.00001254,0.00001727,-0.00000225,0.00000133,0.0
 0000030,-0.00002042,-0.00000586,-0.00000755,0.00000034,0.00000571,-0.0
 0000019,-0.00000162,0.00000226,-0.00000044,-0.00000464,-0.00001296,-0.
 00001015,-0.00000586,0.00000144,0.00000191,0.00000239,-0.00000390,0.00
 000356,0.00000284,0.00000617,0.00000039,-0.00000627,0.00001508,0.00000
 949,-0.00000040,-0.00000079,-0.00000527,0.00000324,-0.00000100,0.00000
 151,0.00000003,-0.00000073,0.00000206,0.00000328,-0.00000508,-0.000004
 28,0.00000341,-0.00000404,-0.00000093,0.00000050,-0.00000154,0.0000002
 4,-0.09279961,-0.24961894,0.07272401,-0.00428219,-0.01141893,0.0045639
 3,-0.00821542,-0.01576002,0.00473091,0.10125516,0.26712593,-0.00001536
 ,-0.00006419,0.00002452,-0.00003111,0.00001344,-0.00002550,0.00051398,
 0.00001858,-0.00018973,-0.00006277,0.00004803,0.00006374,0.00004908,-0
 .00002903,-0.00017036,0.01153429,0.02276560,-0.00992058,-0.00005019,0.
 00009676,0.00013861,-0.00004087,-0.00001582,0.00002913,-0.00002061,-0.
 00001721,-0.00004849,-0.00000266,0.00000315,0.00003664,-0.00001358,0.0
 0000191,0.00005701,-0.00003689,-0.00006387,0.00003049,-0.00001677,0.00
 001341,0.00003270,0.00355432,-0.00144679,-0.00307556,-0.00093307,-0.00
 054735,0.00092320,-0.00002364,-0.00007653,0.00002968,-0.00006142,-0.00
 005168,0.00006266,-0.00000744,-0.00000500,-0.00003084,0.00000556,-0.00
 001034,0.00000799,0.00003689,0.00001934,0.00000402,0.00001580,0.000016
 05,-0.00000552,-0.00000251,-0.00000213,0.00001431,-0.00000518,0.000001
 66,0.00000753,0.00000056,-0.00000901,0.00000045,-0.00000193,0.00000592
 ,-0.00000374,0.00000069,-0.00000080,-0.00000054,-0.00000152,-0.0000075
 6,-0.00000818,-0.00000308,-0.00000423,0.00000102,-0.00000363,-0.000002
 22,-0.00000187,-0.00000014,-0.00000102,0.,0.00000336,0.00000148,-0.000
 00288,0.00000055,0.00000057,0.00000004,-0.00000120,-0.00000025,-0.0000
 0033,0.03204186,0.07128227,-0.07486026,-0.01016369,-0.02299917,0.01029
 758,0.00487682,0.00936542,-0.00399134,-0.03966082,-0.07857843,0.077957
 61,-0.00051148,0.00369598,0.01097017,-0.00253152,0.00091291,-0.0026783
 4,-0.10278585,0.03332300,0.06755931,0.00818962,-0.00734941,-0.01336920
 ,0.00011741,0.00046404,0.00078853,-0.11186386,-0.02507755,-0.04396363,
 0.00038645,0.00520738,0.00439827,-0.00084043,0.00018109,0.00038763,0.0
 0230887,0.00132584,0.00128238,-0.00321535,-0.00332410,-0.00172270,0.00
 015114,-0.00021658,-0.00037878,0.00053294,0.00065692,-0.00076333,0.000
 02423,-0.00068439,-0.00016806,-0.00689500,-0.00872925,-0.01705485,-0.0
 1340086,-0.01576254,-0.02422514,0.00060218,-0.00165235,0.00055511,-0.0
 0003971,0.00079102,-0.00101461,0.00024347,-0.00011505,0.00019533,0.000
 81769,-0.00033558,-0.00045263,0.00091890,-0.00120942,-0.00024787,0.000
 43475,0.00047685,-0.00050621,-0.00022015,0.00003281,0.00033864,-0.0001
 4840,-0.00078344,-0.00038424,-0.00013830,-0.00017437,0.00030955,0.0000
 1134,0.00009416,0.00005863,0.00019093,0.00025192,0.00003075,-0.0003553
 0,0.00059036,0.00046505,-0.00011843,-0.00028057,-0.00026924,-0.0000390
 8,-0.00010795,-0.00004157,-0.00005860,-0.00003262,0.00009496,0.0002444
 1,-0.00011026,-0.00038178,0.00007808,-0.00015880,-0.00003809,-0.000076
 32,-0.00005835,0.00001648,0.01360157,0.00914884,0.01404969,-0.00248968
 ,0.00135133,0.00447903,0.00209240,-0.00052307,-0.00089724,0.00159522,0
 .00028728,-0.00147367,0.21318675,0.00231952,0.00193769,-0.00728014,0.0
 0221822,-0.00166923,0.00226703,0.03862855,-0.06540700,-0.06347293,0.00
 974375,-0.00569248,-0.01476996,-0.00019037,0.00085512,0.00034232,-0.03
 042881,-0.08193731,-0.03609162,-0.00566251,0.00775816,0.00900165,0.001
 30730,0.00035390,-0.00153854,0.00046584,0.00096011,0.00091074,-0.00346
 175,-0.00273034,-0.00099582,-0.00000848,-0.00018627,-0.00035664,0.0005
 8570,-0.00005313,-0.00057899,0.00012454,-0.00002881,-0.00006531,-0.018
 93737,-0.01331975,-0.03331693,0.00158133,0.01060947,0.00395970,0.00016
 441,-0.00257335,0.00247783,0.00083276,0.00138675,-0.00178287,0.0000544
 6,0.00005632,0.00070167,-0.00079236,0.00055293,0.00035414,-0.00142319,
 0.00087389,0.00020985,-0.00095960,-0.00065312,0.00037068,0.00020048,0.
 00007924,-0.00046001,0.00015150,0.00046777,0.00000777,0.00008102,0.000
 18558,-0.00016790,-0.00000657,-0.00015122,0.00000659,-0.00009081,-0.00
 015464,-0.00002522,0.00028737,-0.00017599,-0.00014691,0.00011441,0.000
 24147,0.00014686,0.00010438,0.00011280,0.00006579,0.00005202,0.0000381
 3,-0.00006120,-0.00021629,0.00002866,0.00031709,-0.00004257,0.00009034
 ,0.00002587,0.00006917,0.00004893,-0.00001216,-0.00713860,-0.00517698,
 -0.01638666,0.00225057,0.00028934,-0.00241678,-0.00107178,0.00029556,0
 .00151593,0.00119986,0.00107584,0.00027904,0.00789392,0.15161158,-0.00
 145624,-0.00004592,0.00046672,0.00186824,-0.00070732,0.00074668,0.0630
 3598,-0.05243122,-0.14917837,0.01276698,-0.00998973,-0.01772364,0.0006
 9808,0.00140020,-0.00185313,-0.05472282,-0.03511351,-0.11813283,0.0126
 1811,-0.01484077,-0.01729588,0.00131837,-0.00125701,0.00131560,0.00161
 414,0.00183745,0.00113094,-0.00418006,-0.00434054,-0.00147845,-0.00036
 514,-0.00039442,0.00088829,-0.00077998,-0.00033099,0.00095949,-0.00001
 670,-0.00033666,0.00010132,-0.00635567,-0.01145433,-0.00269351,-0.0164
 7640,-0.01365644,-0.02485884,0.00060667,0.00615188,-0.00399394,0.00038
 746,0.00037806,0.00075915,-0.00017061,-0.00005225,-0.00003295,-0.00003
 307,0.00018408,-0.00007166,-0.00034731,-0.00015641,-0.00023740,-0.0003
 4664,-0.00049593,0.00048986,0.00025564,0.00001042,-0.00058263,0.000057
 89,0.00020890,-0.00011888,0.00004472,0.00018543,-0.00009514,0.00002140
 ,-0.00015024,0.00007784,-0.00002776,-0.00005177,0.00006263,0.00030152,
 -0.00006901,0.00010521,0.00010329,0.00014475,0.00008052,0.00010320,0.0
 0012194,0.00005548,0.00000361,0.00004086,-0.00002275,-0.00016107,0.000
 06239,0.00014295,-0.00010867,0.00009039,0.00002034,0.00003694,0.000034
 14,-0.00000604,-0.01880395,-0.02199061,-0.03731612,0.00594624,-0.00166
 938,-0.00535601,-0.00010366,0.00045450,0.00259080,-0.00138439,0.001263
 06,0.00261680,0.00405165,0.15696600,0.36843752\\-0.00000334,-0.0000014
 6,-0.00000219,0.00000194,-0.00000248,-0.00000159,0.00000314,0.00000612
 ,0.00000437,0.00000249,0.00000218,-0.00000242,-0.00000082,-0.00000082,
 0.00000172,0.00000227,-0.00000420,0.00000311,-0.00000556,0.00000286,0.
 00000401,0.00000153,0.00000384,0.00000358,-0.00000155,0.00000283,0.000
 00177,-0.00000412,0.00000170,0.00000115,-0.00000134,0.00000222,-0.0000
 0046,-0.00000013,0.00000057,-0.00000023,-0.00000095,0.00000105,-0.0000
 0186,0.00000179,-0.00000193,0.00000330,0.00000274,-0.00000086,0.000000
 63,0.00000025,0.00000248,0.00000074,-0.00000008,0.00000152,0.00000192,
 -0.00000165,0.00000374,0.00000319,-0.00000050,0.00000211,0.00000380,-0
 .00000008,0.00000102,0.00000414,-0.00000069,-0.00000267,-0.00000656,0.
 00000074,-0.00000297,-0.00000085,0.00000046,0.00000280,-0.00000096,0.0
 0000140,-0.00000196,-0.00000186,0.00000107,-0.00000275,-0.00000222,-0.
 00000155,-0.00000194,-0.00000361,-0.00000221,-0.00000151,-0.00000376,-
 0.00000011,-0.00000112,-0.00000163,0.00000164,-0.00000332,-0.00000127,
 -0.00000119,0.00000010,-0.00000304,-0.00000149,0.00000142,-0.00000433,
 -0.00000252,0.00000150,-0.00000435,0.00000045,-0.00000182,-0.00000185,
 0.00000305,0.00000058,-0.00000129,0.00000247,-0.00000289,0.00000382,0.
 00000148,-0.00000161,0.00000523,0.00000289,-0.00000212,0.00000175,-0.0
 0000191,-0.00000221,-0.00000192\\\@


 NO SCIENCE HAS EVER MADE MORE RAPID PROGRESS IN A
 SHORTER TIME THAN CHEMISTRY.
   -- MARTIN HEINRICH KLOPROTH, 1791
 (FIRST PROFESSOR OF CHEMISTRY AT THE UNIVERSITY OF BERLIN)
 Job cpu time:       0 days  1 hours  3 minutes 30.4 seconds.
 File lengths (MBytes):  RWF=    484 Int=      0 D2E=      0 Chk=      9 Scr=      1
 Normal termination of Gaussian 09 at Wed Jul 26 15:37:44 2023.
