 Entering Gaussian System, Link 0=g09
 Input=cpx-new-2.com
 Output=cpx-new-2.log
 Initial command:
 /home/scr/programs/g09/l1.exe "/home/scr/guest2/Gau-14754.inp" -scrdir="/home/scr/guest2/"
 Entering Link 1 = /home/scr/programs/g09/l1.exe PID=     14755.
  
 Copyright (c) 1988,1990,1992,1993,1995,1998,2003,2009,2013,
            Gaussian, Inc.  All Rights Reserved.
  
 This is part of the Gaussian(R) 09 program.  It is based on
 the Gaussian(R) 03 system (copyright 2003, Gaussian, Inc.),
 the Gaussian(R) 98 system (copyright 1998, Gaussian, Inc.),
 the Gaussian(R) 94 system (copyright 1995, Gaussian, Inc.),
 the Gaussian 92(TM) system (copyright 1992, Gaussian, Inc.),
 the Gaussian 90(TM) system (copyright 1990, Gaussian, Inc.),
 the Gaussian 88(TM) system (copyright 1988, Gaussian, Inc.),
 the Gaussian 86(TM) system (copyright 1986, Carnegie Mellon
 University), and the Gaussian 82(TM) system (copyright 1983,
 Carnegie Mellon University). Gaussian is a federally registered
 trademark of Gaussian, Inc.
  
 This software contains proprietary and confidential information,
 including trade secrets, belonging to Gaussian, Inc.
  
 This software is provided under written license and may be
 used, copied, transmitted, or stored only in accord with that
 written license.
  
 The following legend is applicable only to US Government
 contracts under FAR:
  
                    RESTRICTED RIGHTS LEGEND
  
 Use, reproduction and disclosure by the US Government is
 subject to restrictions as set forth in subparagraphs (a)
 and (c) of the Commercial Computer Software - Restricted
 Rights clause in FAR 52.227-19.
  
 Gaussian, Inc.
 340 Quinnipiac St., Bldg. 40, Wallingford CT 06492
  
  
 ---------------------------------------------------------------
 Warning -- This program may not be used in any manner that
 competes with the business of Gaussian, Inc. or will provide
 assistance to any competitor of Gaussian, Inc.  The licensee
 of this program is prohibited from giving any competitor of
 Gaussian, Inc. access to this program.  By using this program,
 the user acknowledges that Gaussian, Inc. is engaged in the
 business of creating and licensing software in the field of
 computational chemistry and represents and warrants to the
 licensee that it is not a competitor of Gaussian, Inc. and that
 it will not use this program in any manner prohibited above.
 ---------------------------------------------------------------
  

 Cite this work as:
 Gaussian 09, Revision D.01,
 M. J. Frisch, G. W. Trucks, H. B. Schlegel, G. E. Scuseria, 
 M. A. Robb, J. R. Cheeseman, G. Scalmani, V. Barone, B. Mennucci, 
 G. A. Petersson, H. Nakatsuji, M. Caricato, X. Li, H. P. Hratchian, 
 A. F. Izmaylov, J. Bloino, G. Zheng, J. L. Sonnenberg, M. Hada, 
 M. Ehara, K. Toyota, R. Fukuda, J. Hasegawa, M. Ishida, T. Nakajima, 
 Y. Honda, O. Kitao, H. Nakai, T. Vreven, J. A. Montgomery, Jr., 
 J. E. Peralta, F. Ogliaro, M. Bearpark, J. J. Heyd, E. Brothers, 
 K. N. Kudin, V. N. Staroverov, T. Keith, R. Kobayashi, J. Normand, 
 K. Raghavachari, A. Rendell, J. C. Burant, S. S. Iyengar, J. Tomasi, 
 M. Cossi, N. Rega, J. M. Millam, M. Klene, J. E. Knox, J. B. Cross, 
 V. Bakken, C. Adamo, J. Jaramillo, R. Gomperts, R. E. Stratmann, 
 O. Yazyev, A. J. Austin, R. Cammi, C. Pomelli, J. W. Ochterski, 
 R. L. Martin, K. Morokuma, V. G. Zakrzewski, G. A. Voth, 
 P. Salvador, J. J. Dannenberg, S. Dapprich, A. D. Daniels, 
 O. Farkas, J. B. Foresman, J. V. Ortiz, J. Cioslowski, 
 and D. J. Fox, Gaussian, Inc., Wallingford CT, 2013.
 
 ******************************************
 Gaussian 09:  EM64L-G09RevD.01 24-Apr-2013
                26-Jul-2023 
 ******************************************
 %mem=30000MB
 %nprocshared=15
 Will use up to   15 processors via shared memory.
 %chk=cpx-new-2.chk
 ----------------------------------------------------------------
 # b3lyp/gen pseudo=read opt=(ts,readfc,noeigentest) freq=noraman
 ----------------------------------------------------------------
 1/5=1,10=3,11=1,14=-1,18=20,26=3,38=1/1,3;
 2/9=110,12=2,17=6,18=5,40=1/2;
 3/5=7,11=2,16=1,17=8,25=1,30=1,71=1,74=-5/1,2,3;
 4//1;
 5/5=2,38=5/2;
 6/7=2,8=2,9=2,10=2,28=1/1;
 7//1,2,3,16;
 1/5=1,11=1,14=-1,18=20,26=3/3(2);
 2/9=110/2;
 99//99;
 2/9=110/2;
 3/5=7,6=1,11=2,16=1,17=8,25=1,30=1,71=1,74=-5,82=7/1,2,3;
 4/5=5,16=3,69=1/1;
 5/5=2,38=5/2;
 7//1,2,3,16;
 1/5=1,11=1,14=-1,18=20,26=3/3(-5);
 2/9=110/2;
 6/7=2,8=2,9=2,10=2,19=2,28=1/1;
 99/9=1/99;
 -------------------
 Title Card Required
 -------------------
 Symbolic Z-matrix:
 Charge =  0 Multiplicity = 1
 Au                   -2.49086  -0.84053  -0.10844 
 P                    -4.54007   0.09883   0.55609 
 C                    -4.58242   1.93596   0.73119 
 H                    -5.59769   2.21934   1.03449 
 H                    -4.40531   2.3505   -0.26719 
 C                    -5.11068  -0.58952   2.16511 
 H                    -4.26178  -0.48018   2.85264 
 H                    -5.22196  -1.66561   1.98863 
 C                    -5.82395   0.06888  -1.77567 
 H                    -5.95753   1.14962  -1.87759 
 H                    -4.85199  -0.1968   -2.19765 
 C                    -6.39592   0.00375   2.75758 
 H                    -6.64391  -0.50887   3.69291 
 H                    -6.28629   1.06809   2.98773 
 H                    -7.24107  -0.11377   2.07284 
 C                    -3.52542   2.48332   1.70073 
 H                    -2.51684   2.197     1.38621 
 H                    -3.56792   3.57731   1.71789 
 H                    -3.67938   2.1241    2.72447 
 S                    -1.87813   0.03026  -2.43208 
 N                     6.8535    2.96008  -0.05157 
 C                     5.4776    2.70189   0.37986 
 C                     5.28052   1.21973   0.75297 
 O                     5.73159   0.3469    0.0138 
 C                     4.54175   3.08671  -0.78336 
 O                     3.17391   2.82519  -0.51245 
 N                     4.67682   0.87554   1.93722 
 C                     3.92666   1.72314   2.85434 
 C                     2.48777   2.04968   2.40117 
 O                     2.19254   3.19921   2.06406 
 N                     1.57423   1.04335   2.39249 
 C                     1.81675  -0.35715   2.68625 
 C                     2.39703  -1.19251   1.5333 
 O                     3.17401  -2.1114    1.81006 
 C                     0.54684  -1.06644   3.222 
 S                    -1.04758  -0.76752   2.35751 
 N                     1.95119  -0.92239   0.28649 
 C                     1.98909  -1.95638  -0.74606 
 C                     0.56209  -2.34013  -1.17075 
 C                     2.77547  -1.43544  -1.97097 
 O                     2.23362  -0.70046  -2.79572 
 N                     4.07115  -1.81617  -2.09573 
 C                     4.90693  -2.50002  -1.12701 
 C                     6.35785  -2.24508  -1.48532 
 O                     6.73838  -1.65755  -2.47339 
 O                     7.18662  -2.79649  -0.57815 
 H                     4.72062   4.14244  -1.02593 
 H                     4.80118   2.4852   -1.65964 
 H                     2.89684   3.29345   0.29885 
 H                     5.26069   3.36035   1.22731 
 H                     7.12321   2.20049  -0.67821 
 H                     7.48332   2.89923   0.74717 
 H                     4.42229   2.68608   2.98237 
 H                     3.91999   1.23238   3.8335 
 H                     4.60951  -0.1305    2.06556 
 H                     0.34622  -0.69731   4.23567 
 H                     0.75006  -2.13854   3.28649 
 H                     2.55693  -0.43431   3.48787 
 H                     0.65571   1.28687   2.02655 
 H                     0.5612   -3.30891  -1.68359 
 H                     0.12399  -1.59116  -1.83068 
 H                     2.49084  -2.81067  -0.29034 
 H                     1.35089  -0.11292   0.10355 
 H                     4.74858  -3.58844  -1.13586 
 H                     4.73527  -2.15201  -0.10537 
 H                     4.58042  -1.36989  -2.85399 
 H                     8.09318  -2.59192  -0.8754 
 Se                   -0.68251  -2.58191   0.38019 
 C                    -1.64156   1.74962  -2.08711 
 C                    -2.67203   2.67389  -2.35569 
 C                    -0.40983   2.24033  -1.56 
 C                    -2.53924   4.02836  -2.06863 
 H                    -3.58615   2.29619  -2.80546 
 C                    -0.2983    3.61092  -1.25447 
 C                    -1.3458    4.49129  -1.49765 
 H                    -3.34865   4.71839  -2.29178 
 H                     0.63974   3.97514  -0.84416 
 H                    -1.22363   5.54574  -1.26319 
 N                     0.66746   1.38694  -1.32005 
 H                     0.75684   0.63363  -2.00213 
 H                     1.55756   1.87847  -1.22435 
 C                    -6.97209  -0.6737   -2.43365 
 H                    -7.94619  -0.40268  -1.97632 
 H                    -7.00513  -0.41022  -3.50218 
 H                    -6.82655  -1.76493  -2.33147 
 O                    -5.82771  -0.26886  -0.3769 
 

 GradGradGradGradGradGradGradGradGradGradGradGradGradGradGradGradGradGrad
 Berny optimization.
 Initialization pass.
 No redundant coordinates on chk file, so ReadFC converted to ReadCartesianFC.
 Cartesian force constants read from checkpoint file:
 "cpx-new-2.chk"
 FormGI is forming the generalized inverse of G from B-inverse, IUseBI=4.
 GSVD:  received Info=                   1 from GESDD.
                           ----------------------------
                           !    Initial Parameters    !
                           ! (Angstroms and Degrees)  !
 --------------------------                            --------------------------
 ! Name  Definition              Value          Derivative Info.                !
 --------------------------------------------------------------------------------
 ! R1    R(1,2)                  2.3502         D2E/DX2 =    0.0949             !
 ! R2    R(1,20)                 2.556          D2E/DX2 =    0.0613             !
 ! R3    R(1,68)                 2.5576         D2E/DX2 =    0.0803             !
 ! R4    R(2,3)                  1.8459         D2E/DX2 =    0.1857             !
 ! R5    R(2,6)                  1.8407         D2E/DX2 =    0.1952             !
 ! R6    R(2,86)                 1.6321         D2E/DX2 =    0.3235             !
 ! R7    R(3,4)                  1.0968         D2E/DX2 =    0.3359             !
 ! R8    R(3,5)                  1.0954         D2E/DX2 =    0.3393             !
 ! R9    R(3,16)                 1.5352         D2E/DX2 =    0.282              !
 ! R10   R(6,7)                  1.0979         D2E/DX2 =    0.3343             !
 ! R11   R(6,8)                  1.0961         D2E/DX2 =    0.3381             !
 ! R12   R(6,12)                 1.5345         D2E/DX2 =    0.2798             !
 ! R13   R(9,10)                 1.0937         D2E/DX2 =    0.3382             !
 ! R14   R(9,11)                 1.0924         D2E/DX2 =    0.3438             !
 ! R15   R(9,82)                 1.5174         D2E/DX2 =    0.2982             !
 ! R16   R(9,86)                 1.439          D2E/DX2 =    0.3201             !
 ! R17   R(12,13)                1.095          D2E/DX2 =    0.3411             !
 ! R18   R(12,14)                1.0944         D2E/DX2 =    0.3428             !
 ! R19   R(12,15)                1.0941         D2E/DX2 =    0.3449             !
 ! R20   R(16,17)                1.0946         D2E/DX2 =    0.3432             !
 ! R21   R(16,18)                1.0949         D2E/DX2 =    0.3418             !
 ! R22   R(16,19)                1.0958         D2E/DX2 =    0.3399             !
 ! R23   R(20,69)                1.7695         D2E/DX2 =    0.2398             !
 ! R24   R(21,22)                1.4649         D2E/DX2 =    0.3329             !
 ! R25   R(21,51)                1.021          D2E/DX2 =    0.4361             !
 ! R26   R(21,52)                1.019          D2E/DX2 =    0.439              !
 ! R27   R(22,23)                1.5411         D2E/DX2 =    0.251              !
 ! R28   R(22,25)                1.5417         D2E/DX2 =    0.2714             !
 ! R29   R(22,50)                1.0949         D2E/DX2 =    0.3382             !
 ! R30   R(23,24)                1.2295         D2E/DX2 =    0.785              !
 ! R31   R(23,27)                1.3731         D2E/DX2 =    0.4521             !
 ! R32   R(25,26)                1.4187         D2E/DX2 =    0.3651             !
 ! R33   R(25,47)                1.0979         D2E/DX2 =    0.3315             !
 ! R34   R(25,48)                1.0941         D2E/DX2 =    0.3432             !
 ! R35   R(26,49)                0.9769         D2E/DX2 =    0.4695             !
 ! R36   R(27,28)                1.4568         D2E/DX2 =    0.3526             !
 ! R37   R(27,55)                1.0164         D2E/DX2 =    0.4473             !
 ! R38   R(28,29)                1.5435         D2E/DX2 =    0.2537             !
 ! R39   R(28,53)                1.0906         D2E/DX2 =    0.3508             !
 ! R40   R(28,54)                1.0953         D2E/DX2 =    0.3384             !
 ! R41   R(29,30)                1.2338         D2E/DX2 =    0.759              !
 ! R42   R(29,31)                1.3592         D2E/DX2 =    0.484              !
 ! R43   R(31,32)                1.4514         D2E/DX2 =    0.3424             !
 ! R44   R(31,59)                1.0183         D2E/DX2 =    0.443              !
 ! R45   R(32,33)                1.5375         D2E/DX2 =    0.2626             !
 ! R46   R(32,35)                1.5501         D2E/DX2 =    0.259              !
 ! R47   R(32,58)                1.0938         D2E/DX2 =    0.339              !
 ! R48   R(33,34)                1.2348         D2E/DX2 =    0.7566             !
 ! R49   R(33,37)                1.3514         D2E/DX2 =    0.5149             !
 ! R50   R(35,36)                1.8382         D2E/DX2 =    0.1834             !
 ! R51   R(35,56)                1.0973         D2E/DX2 =    0.3333             !
 ! R52   R(35,57)                1.0931         D2E/DX2 =    0.3447             !
 ! R53   R(37,38)                1.4618         D2E/DX2 =    0.3571             !
 ! R54   R(37,63)                1.0242         D2E/DX2 =    0.4093             !
 ! R55   R(38,39)                1.5375         D2E/DX2 =    0.2992             !
 ! R56   R(38,40)                1.546          D2E/DX2 =    0.2501             !
 ! R57   R(38,62)                1.0905         D2E/DX2 =    0.3495             !
 ! R58   R(39,60)                1.0961         D2E/DX2 =    0.337              !
 ! R59   R(39,61)                1.0901         D2E/DX2 =    0.3502             !
 ! R60   R(39,68)                2.0032         D2E/DX2 =    0.1541             !
 ! R61   R(40,41)                1.2304         D2E/DX2 =    0.7774             !
 ! R62   R(40,42)                1.3562         D2E/DX2 =    0.477              !
 ! R63   R(42,43)                1.4507         D2E/DX2 =    0.3561             !
 ! R64   R(42,66)                1.0166         D2E/DX2 =    0.4499             !
 ! R65   R(43,44)                1.5161         D2E/DX2 =    0.2929             !
 ! R66   R(43,64)                1.0999         D2E/DX2 =    0.3266             !
 ! R67   R(43,65)                1.0929         D2E/DX2 =    0.347              !
 ! R68   R(44,45)                1.2109         D2E/DX2 =    0.8696             !
 ! R69   R(44,46)                1.3468         D2E/DX2 =    0.4218             !
 ! R70   R(46,67)                0.9757         D2E/DX2 =    0.4897             !
 ! R71   R(69,70)                1.4101         D2E/DX2 =    0.3715             !
 ! R72   R(69,71)                1.4268         D2E/DX2 =    0.3716             !
 ! R73   R(70,72)                1.3909         D2E/DX2 =    0.4101             !
 ! R74   R(70,73)                1.0865         D2E/DX2 =    0.3606             !
 ! R75   R(71,74)                1.4087         D2E/DX2 =    0.3788             !
 ! R76   R(71,79)                1.3951         D2E/DX2 =    0.4206             !
 ! R77   R(72,75)                1.4017         D2E/DX2 =    0.3915             !
 ! R78   R(72,76)                1.0868         D2E/DX2 =    0.3595             !
 ! R79   R(74,75)                1.3898         D2E/DX2 =    0.4131             !
 ! R80   R(74,77)                1.0867         D2E/DX2 =    0.3609             !
 ! R81   R(75,78)                1.0871         D2E/DX2 =    0.3595             !
 ! R82   R(79,80)                1.0201         D2E/DX2 =    0.4362             !
 ! R83   R(79,81)                1.0213         D2E/DX2 =    0.4322             !
 ! R84   R(82,83)                1.1097         D2E/DX2 =    0.3144             !
 ! R85   R(82,84)                1.101          D2E/DX2 =    0.3317             !
 ! R86   R(82,85)                1.1056         D2E/DX2 =    0.3225             !
 ! A1    A(2,1,20)             109.2631         D2E/DX2 =    0.1735             !
 ! A2    A(2,1,68)             146.5777         D2E/DX2 =    0.1474             !
 ! A3    A(20,1,68)            103.6593         D2E/DX2 =    0.3753             !
 ! A4    A(1,2,3)              116.3989         D2E/DX2 =    0.0303             !
 ! A5    A(1,2,6)              111.5912         D2E/DX2 =    0.0287             !
 ! A6    A(1,2,86)             115.864          D2E/DX2 =    0.0229             !
 ! A7    A(3,2,6)              106.3881         D2E/DX2 =    0.0521             !
 ! A8    A(3,2,86)             105.0906         D2E/DX2 =    0.0274             !
 ! A9    A(6,2,86)              99.8385         D2E/DX2 =    0.0284             !
 ! A10   A(2,3,4)              107.7337         D2E/DX2 =    0.0429             !
 ! A11   A(2,3,5)              106.6464         D2E/DX2 =    0.0415             !
 ! A12   A(2,3,16)             113.5125         D2E/DX2 =    0.1078             !
 ! A13   A(4,3,5)              107.6919         D2E/DX2 =    0.0172             !
 ! A14   A(4,3,16)             111.7493         D2E/DX2 =    0.0438             !
 ! A15   A(5,3,16)             109.2292         D2E/DX2 =    0.0434             !
 ! A16   A(2,6,7)              105.6927         D2E/DX2 =    0.0487             !
 ! A17   A(2,6,8)              104.9428         D2E/DX2 =    0.0484             !
 ! A18   A(2,6,12)             116.9067         D2E/DX2 =    0.1263             !
 ! A19   A(7,6,8)              106.0875         D2E/DX2 =    0.017              !
 ! A20   A(7,6,12)             111.5501         D2E/DX2 =    0.0458             !
 ! A21   A(8,6,12)             110.8959         D2E/DX2 =    0.0457             !
 ! A22   A(10,9,11)            108.2392         D2E/DX2 =    0.0315             !
 ! A23   A(10,9,82)            110.5326         D2E/DX2 =    0.0711             !
 ! A24   A(10,9,86)            108.7954         D2E/DX2 =    0.0629             !
 ! A25   A(11,9,82)            112.7491         D2E/DX2 =    0.0714             !
 ! A26   A(11,9,86)            108.7074         D2E/DX2 =    0.0698             !
 ! A27   A(82,9,86)            107.7378         D2E/DX2 =    0.1671             !
 ! A28   A(6,12,13)            109.7838         D2E/DX2 =    0.1048             !
 ! A29   A(6,12,14)            111.9173         D2E/DX2 =    0.108              !
 ! A30   A(6,12,15)            111.3349         D2E/DX2 =    0.1066             !
 ! A31   A(13,12,14)           107.3567         D2E/DX2 =    0.0529             !
 ! A32   A(13,12,15)           108.0209         D2E/DX2 =    0.0522             !
 ! A33   A(14,12,15)           108.2674         D2E/DX2 =    0.0548             !
 ! A34   A(3,16,17)            111.0797         D2E/DX2 =    0.1112             !
 ! A35   A(3,16,18)            109.8403         D2E/DX2 =    0.1051             !
 ! A36   A(3,16,19)            112.1107         D2E/DX2 =    0.1088             !
 ! A37   A(17,16,18)           107.5543         D2E/DX2 =    0.0524             !
 ! A38   A(17,16,19)           108.189          D2E/DX2 =    0.0551             !
 ! A39   A(18,16,19)           107.9052         D2E/DX2 =    0.0536             !
 ! A40   A(1,20,69)            100.7111         D2E/DX2 =    0.3247             !
 ! A41   A(22,21,51)           107.3228         D2E/DX2 =    0.1606             !
 ! A42   A(22,21,52)           109.8253         D2E/DX2 =    0.1559             !
 ! A43   A(51,21,52)           105.8664         D2E/DX2 =    0.0565             !
 ! A44   A(21,22,23)           111.1578         D2E/DX2 =    0.0721             !
 ! A45   A(21,22,25)           107.6945         D2E/DX2 =    0.1003             !
 ! A46   A(21,22,50)           107.9408         D2E/DX2 =    0.0283             !
 ! A47   A(23,22,25)           110.1882         D2E/DX2 =    0.0898             !
 ! A48   A(23,22,50)           111.4487         D2E/DX2 =    0.0294             !
 ! A49   A(25,22,50)           108.2769         D2E/DX2 =    0.0382             !
 ! A50   A(22,23,24)           119.36           D2E/DX2 =    0.1998             !
 ! A51   A(22,23,27)           120.4067         D2E/DX2 =    0.2989             !
 ! A52   A(24,23,27)           120.1237         D2E/DX2 =    0.2358             !
 ! A53   A(22,25,26)           113.276          D2E/DX2 =    0.2164             !
 ! A54   A(22,25,47)           107.9274         D2E/DX2 =    0.0758             !
 ! A55   A(22,25,48)           108.8521         D2E/DX2 =    0.0832             !
 ! A56   A(26,25,47)           112.1182         D2E/DX2 =    0.0713             !
 ! A57   A(26,25,48)           106.2728         D2E/DX2 =    0.0708             !
 ! A58   A(47,25,48)           108.2451         D2E/DX2 =    0.0281             !
 ! A59   A(25,26,49)           110.1015         D2E/DX2 =    0.2127             !
 ! A60   A(23,27,28)           128.5736         D2E/DX2 =    0.3775             !
 ! A61   A(23,27,55)           112.7137         D2E/DX2 =    0.1553             !
 ! A62   A(28,27,55)           117.5348         D2E/DX2 =    0.1567             !
 ! A63   A(27,28,29)           114.7268         D2E/DX2 =    0.3204             !
 ! A64   A(27,28,53)           110.7092         D2E/DX2 =    0.0858             !
 ! A65   A(27,28,54)           107.7723         D2E/DX2 =    0.0935             !
 ! A66   A(29,28,53)           105.7444         D2E/DX2 =    0.0746             !
 ! A67   A(29,28,54)           110.5846         D2E/DX2 =    0.098              !
 ! A68   A(53,28,54)           107.0644         D2E/DX2 =    0.0254             !
 ! A69   A(28,29,30)           120.0267         D2E/DX2 =    0.1995             !
 ! A70   A(28,29,31)           118.1523         D2E/DX2 =    0.3164             !
 ! A71   A(30,29,31)           121.8205         D2E/DX2 =    0.2283             !
 ! A72   A(29,31,32)           126.9299         D2E/DX2 =    0.3188             !
 ! A73   A(29,31,59)           115.564          D2E/DX2 =    0.1415             !
 ! A74   A(32,31,59)           117.0153         D2E/DX2 =    0.1413             !
 ! A75   A(31,32,33)           115.8218         D2E/DX2 =    0.1509             !
 ! A76   A(31,32,35)           111.999          D2E/DX2 =    0.1151             !
 ! A77   A(31,32,58)           109.2371         D2E/DX2 =    0.0444             !
 ! A78   A(33,32,35)           108.6489         D2E/DX2 =    0.1476             !
 ! A79   A(33,32,58)           104.8239         D2E/DX2 =    0.0324             !
 ! A80   A(35,32,58)           105.5933         D2E/DX2 =    0.0468             !
 ! A81   A(32,33,34)           118.2783         D2E/DX2 =    0.2439             !
 ! A82   A(32,33,37)           117.3058         D2E/DX2 =    0.4717             !
 ! A83   A(34,33,37)           124.2729         D2E/DX2 =    0.2809             !
 ! A84   A(32,35,36)           118.2718         D2E/DX2 =    0.1929             !
 ! A85   A(32,35,56)           108.3694         D2E/DX2 =    0.1073             !
 ! A86   A(32,35,57)           108.4741         D2E/DX2 =    0.1041             !
 ! A87   A(36,35,56)           102.7776         D2E/DX2 =    0.0674             !
 ! A88   A(36,35,57)           110.3953         D2E/DX2 =    0.0742             !
 ! A89   A(56,35,57)           108.025          D2E/DX2 =    0.0465             !
 ! A90   A(33,37,38)           120.117          D2E/DX2 =    0.3157             !
 ! A91   A(33,37,63)           121.0724         D2E/DX2 =    0.1362             !
 ! A92   A(38,37,63)           116.6191         D2E/DX2 =    0.1629             !
 ! A93   A(37,38,39)           110.341          D2E/DX2 =    0.4675             !
 ! A94   A(37,38,40)           109.5423         D2E/DX2 =    0.1343             !
 ! A95   A(37,38,62)           105.7156         D2E/DX2 =    0.0638             !
 ! A96   A(39,38,40)           109.7151         D2E/DX2 =    0.1678             !
 ! A97   A(39,38,62)           110.2997         D2E/DX2 =    0.059              !
 ! A98   A(40,38,62)           111.1633         D2E/DX2 =    0.0469             !
 ! A99   A(38,39,60)           110.5228         D2E/DX2 =    0.1253             !
 ! A100  A(38,39,61)           111.6365         D2E/DX2 =    0.1195             !
 ! A101  A(38,39,68)           113.136          D2E/DX2 =    0.5206             !
 ! A102  A(60,39,61)           108.884          D2E/DX2 =    0.0328             !
 ! A103  A(60,39,68)           104.7769         D2E/DX2 =    0.1145             !
 ! A104  A(61,39,68)           107.573          D2E/DX2 =    0.1037             !
 ! A105  A(38,40,41)           120.5538         D2E/DX2 =    0.1949             !
 ! A106  A(38,40,42)           117.661          D2E/DX2 =    0.2096             !
 ! A107  A(41,40,42)           121.7851         D2E/DX2 =    0.2027             !
 ! A108  A(40,42,43)           128.4117         D2E/DX2 =    0.1468             !
 ! A109  A(40,42,66)           115.0859         D2E/DX2 =    0.0932             !
 ! A110  A(43,42,66)           114.6061         D2E/DX2 =    0.1013             !
 ! A111  A(42,43,44)           108.317          D2E/DX2 =    0.1986             !
 ! A112  A(42,43,64)           112.2188         D2E/DX2 =    0.0643             !
 ! A113  A(42,43,65)           112.5589         D2E/DX2 =    0.0683             !
 ! A114  A(44,43,64)           107.5941         D2E/DX2 =    0.0619             !
 ! A115  A(44,43,65)           108.5248         D2E/DX2 =    0.0636             !
 ! A116  A(64,43,65)           107.4586         D2E/DX2 =    0.026              !
 ! A117  A(43,44,45)           125.1119         D2E/DX2 =    0.1705             !
 ! A118  A(43,44,46)           111.1541         D2E/DX2 =    0.1612             !
 ! A119  A(45,44,46)           123.7035         D2E/DX2 =    0.1984             !
 ! A120  A(44,46,67)           106.3019         D2E/DX2 =    0.1798             !
 ! A121  A(1,68,39)            102.0756         D2E/DX2 =    1.1276             !
 ! A122  A(20,69,70)           120.1369         D2E/DX2 =    0.2178             !
 ! A123  A(20,69,71)           121.44           D2E/DX2 =    0.2783             !
 ! A124  A(70,69,71)           118.4123         D2E/DX2 =    0.0918             !
 ! A125  A(69,70,72)           121.9538         D2E/DX2 =    0.0884             !
 ! A126  A(69,70,73)           117.7632         D2E/DX2 =    0.0851             !
 ! A127  A(72,70,73)           120.2821         D2E/DX2 =    0.0836             !
 ! A128  A(69,71,74)           118.8882         D2E/DX2 =    0.0893             !
 ! A129  A(69,71,79)           121.3169         D2E/DX2 =    0.1944             !
 ! A130  A(74,71,79)           119.7829         D2E/DX2 =    0.1846             !
 ! A131  A(70,72,75)           119.1423         D2E/DX2 =    0.0805             !
 ! A132  A(70,72,76)           120.3198         D2E/DX2 =    0.0813             !
 ! A133  A(75,72,76)           120.5364         D2E/DX2 =    0.0818             !
 ! A134  A(71,74,75)           121.2466         D2E/DX2 =    0.0843             !
 ! A135  A(71,74,77)           118.4468         D2E/DX2 =    0.0856             !
 ! A136  A(75,74,77)           120.2892         D2E/DX2 =    0.0848             !
 ! A137  A(72,75,74)           120.2531         D2E/DX2 =    0.081              !
 ! A138  A(72,75,78)           120.2586         D2E/DX2 =    0.0823             !
 ! A139  A(74,75,78)           119.4728         D2E/DX2 =    0.0824             !
 ! A140  A(71,79,80)           113.8498         D2E/DX2 =    0.1438             !
 ! A141  A(71,79,81)           113.2477         D2E/DX2 =    0.1567             !
 ! A142  A(80,79,81)           109.98           D2E/DX2 =    0.0711             !
 ! A143  A(9,82,83)            111.4664         D2E/DX2 =    0.1071             !
 ! A144  A(9,82,84)            109.0514         D2E/DX2 =    0.104              !
 ! A145  A(9,82,85)            110.0791         D2E/DX2 =    0.108              !
 ! A146  A(83,82,84)           108.3704         D2E/DX2 =    0.0512             !
 ! A147  A(83,82,85)           108.5727         D2E/DX2 =    0.0536             !
 ! A148  A(84,82,85)           109.2585         D2E/DX2 =    0.0504             !
 ! A149  A(2,86,9)             120.049          D2E/DX2 =    0.2068             !
 ! D1    D(20,1,2,3)           -62.2268         D2E/DX2 =    0.0209             !
 ! D2    D(20,1,2,6)           175.4156         D2E/DX2 =    0.0189             !
 ! D3    D(20,1,2,86)           62.0821         D2E/DX2 =    0.0197             !
 ! D4    D(68,1,2,3)           128.1286         D2E/DX2 =    0.0179             !
 ! D5    D(68,1,2,6)             5.771          D2E/DX2 =    0.0177             !
 ! D6    D(68,1,2,86)         -107.5625         D2E/DX2 =    0.0168             !
 ! D7    D(2,1,20,69)           65.2565         D2E/DX2 =    0.1547             !
 ! D8    D(68,1,20,69)        -120.5916         D2E/DX2 =    0.1906             !
 ! D9    D(2,1,68,39)          176.8559         D2E/DX2 =    0.1376             !
 ! D10   D(20,1,68,39)           6.913          D2E/DX2 =    0.2678             !
 ! D11   D(1,2,3,4)            179.4859         D2E/DX2 =    0.0108             !
 ! D12   D(1,2,3,5)             64.1052         D2E/DX2 =    0.0111             !
 ! D13   D(1,2,3,16)           -56.2237         D2E/DX2 =    0.0103             !
 ! D14   D(6,2,3,4)            -55.4704         D2E/DX2 =    0.0134             !
 ! D15   D(6,2,3,5)           -170.8511         D2E/DX2 =    0.0139             !
 ! D16   D(6,2,3,16)            68.82           D2E/DX2 =    0.0131             !
 ! D17   D(86,2,3,4)            49.8234         D2E/DX2 =    0.0147             !
 ! D18   D(86,2,3,5)           -65.5573         D2E/DX2 =    0.0149             !
 ! D19   D(86,2,3,16)          174.1138         D2E/DX2 =    0.0147             !
 ! D20   D(1,2,6,7)             51.5328         D2E/DX2 =    0.0109             !
 ! D21   D(1,2,6,8)            -60.361          D2E/DX2 =    0.0107             !
 ! D22   D(1,2,6,12)           176.3129         D2E/DX2 =    0.0103             !
 ! D23   D(3,2,6,7)            -76.405          D2E/DX2 =    0.0135             !
 ! D24   D(3,2,6,8)            171.7012         D2E/DX2 =    0.0139             !
 ! D25   D(3,2,6,12)            48.3751         D2E/DX2 =    0.0133             !
 ! D26   D(86,2,6,7)           174.5432         D2E/DX2 =    0.0142             !
 ! D27   D(86,2,6,8)            62.6494         D2E/DX2 =    0.014              !
 ! D28   D(86,2,6,12)          -60.6767         D2E/DX2 =    0.0134             !
 ! D29   D(1,2,86,9)           -58.948          D2E/DX2 =    0.0103             !
 ! D30   D(3,2,86,9)            71.0293         D2E/DX2 =    0.0168             !
 ! D31   D(6,2,86,9)          -178.89           D2E/DX2 =    0.0166             !
 ! D32   D(2,3,16,17)           58.0942         D2E/DX2 =    0.0127             !
 ! D33   D(2,3,16,18)          176.9574         D2E/DX2 =    0.0128             !
 ! D34   D(2,3,16,19)          -63.0837         D2E/DX2 =    0.0127             !
 ! D35   D(4,3,16,17)         -179.8192         D2E/DX2 =    0.0139             !
 ! D36   D(4,3,16,18)          -60.956          D2E/DX2 =    0.0139             !
 ! D37   D(4,3,16,19)           59.0029         D2E/DX2 =    0.0143             !
 ! D38   D(5,3,16,17)          -60.7623         D2E/DX2 =    0.0149             !
 ! D39   D(5,3,16,18)           58.1008         D2E/DX2 =    0.0144             !
 ! D40   D(5,3,16,19)          178.0598         D2E/DX2 =    0.0145             !
 ! D41   D(2,6,12,13)          178.2221         D2E/DX2 =    0.0128             !
 ! D42   D(2,6,12,14)          -62.6699         D2E/DX2 =    0.0126             !
 ! D43   D(2,6,12,15)           58.6544         D2E/DX2 =    0.0127             !
 ! D44   D(7,6,12,13)          -60.0072         D2E/DX2 =    0.0142             !
 ! D45   D(7,6,12,14)           59.1008         D2E/DX2 =    0.0144             !
 ! D46   D(7,6,12,15)         -179.5749         D2E/DX2 =    0.0143             !
 ! D47   D(8,6,12,13)           58.0063         D2E/DX2 =    0.0142             !
 ! D48   D(8,6,12,14)          177.1142         D2E/DX2 =    0.0142             !
 ! D49   D(8,6,12,15)          -61.5615         D2E/DX2 =    0.0147             !
 ! D50   D(10,9,82,83)         -59.7927         D2E/DX2 =    0.0172             !
 ! D51   D(10,9,82,84)          59.8157         D2E/DX2 =    0.0162             !
 ! D52   D(10,9,82,85)         179.6674         D2E/DX2 =    0.0158             !
 ! D53   D(11,9,82,83)         178.9114         D2E/DX2 =    0.0161             !
 ! D54   D(11,9,82,84)         -61.4802         D2E/DX2 =    0.0166             !
 ! D55   D(11,9,82,85)          58.3715         D2E/DX2 =    0.0174             !
 ! D56   D(86,9,82,83)          58.9593         D2E/DX2 =    0.0177             !
 ! D57   D(86,9,82,84)         178.5677         D2E/DX2 =    0.0171             !
 ! D58   D(86,9,82,85)         -61.5806         D2E/DX2 =    0.0177             !
 ! D59   D(10,9,86,2)          -73.3839         D2E/DX2 =    0.0251             !
 ! D60   D(11,9,86,2)           44.2811         D2E/DX2 =    0.0264             !
 ! D61   D(82,9,86,2)          166.758          D2E/DX2 =    0.0167             !
 ! D62   D(1,20,69,70)         -98.6613         D2E/DX2 =    0.1033             !
 ! D63   D(1,20,69,71)          82.5512         D2E/DX2 =    0.1263             !
 ! D64   D(51,21,22,23)         43.9802         D2E/DX2 =    0.0199             !
 ! D65   D(51,21,22,25)        -76.8104         D2E/DX2 =    0.0205             !
 ! D66   D(51,21,22,50)        166.4905         D2E/DX2 =    0.0148             !
 ! D67   D(52,21,22,23)        -70.6573         D2E/DX2 =    0.0178             !
 ! D68   D(52,21,22,25)        168.5521         D2E/DX2 =    0.0193             !
 ! D69   D(52,21,22,50)         51.853          D2E/DX2 =    0.0131             !
 ! D70   D(21,22,23,24)        -45.1241         D2E/DX2 =    0.0227             !
 ! D71   D(21,22,23,27)        131.0745         D2E/DX2 =    0.0293             !
 ! D72   D(25,22,23,24)         74.187          D2E/DX2 =    0.0442             !
 ! D73   D(25,22,23,27)       -109.6144         D2E/DX2 =    0.0736             !
 ! D74   D(50,22,23,24)       -165.5838         D2E/DX2 =    0.0186             !
 ! D75   D(50,22,23,27)         10.6148         D2E/DX2 =    0.0234             !
 ! D76   D(21,22,25,26)        177.3113         D2E/DX2 =    0.0254             !
 ! D77   D(21,22,25,47)        -57.9411         D2E/DX2 =    0.0194             !
 ! D78   D(21,22,25,48)         59.3284         D2E/DX2 =    0.0208             !
 ! D79   D(23,22,25,26)         55.9141         D2E/DX2 =    0.0297             !
 ! D80   D(23,22,25,47)       -179.3383         D2E/DX2 =    0.024              !
 ! D81   D(23,22,25,48)        -62.0688         D2E/DX2 =    0.0219             !
 ! D82   D(50,22,25,26)        -66.2092         D2E/DX2 =    0.0218             !
 ! D83   D(50,22,25,47)         58.5384         D2E/DX2 =    0.0157             !
 ! D84   D(50,22,25,48)        175.8079         D2E/DX2 =    0.0176             !
 ! D85   D(22,23,27,28)         13.0365         D2E/DX2 =    0.0369             !
 ! D86   D(22,23,27,55)       -179.8382         D2E/DX2 =    0.0431             !
 ! D87   D(24,23,27,28)       -170.794          D2E/DX2 =    0.0402             !
 ! D88   D(24,23,27,55)         -3.6687         D2E/DX2 =    0.0241             !
 ! D89   D(22,25,26,49)         56.9381         D2E/DX2 =    0.0246             !
 ! D90   D(47,25,26,49)        -65.5099         D2E/DX2 =    0.0265             !
 ! D91   D(48,25,26,49)        176.4106         D2E/DX2 =    0.0291             !
 ! D92   D(23,27,28,29)         77.2112         D2E/DX2 =    0.0695             !
 ! D93   D(23,27,28,53)        -42.3577         D2E/DX2 =    0.0212             !
 ! D94   D(23,27,28,54)       -159.1409         D2E/DX2 =    0.0367             !
 ! D95   D(55,27,28,29)        -89.3861         D2E/DX2 =    0.0388             !
 ! D96   D(55,27,28,53)        151.045          D2E/DX2 =    0.025              !
 ! D97   D(55,27,28,54)         34.2618         D2E/DX2 =    0.0183             !
 ! D98   D(27,28,29,30)       -111.1689         D2E/DX2 =    0.0388             !
 ! D99   D(27,28,29,31)         69.0724         D2E/DX2 =    0.0584             !
 ! D100  D(53,28,29,30)         11.1293         D2E/DX2 =    0.0192             !
 ! D101  D(53,28,29,31)       -168.6294         D2E/DX2 =    0.0427             !
 ! D102  D(54,28,29,30)        126.6959         D2E/DX2 =    0.0231             !
 ! D103  D(54,28,29,31)        -53.0629         D2E/DX2 =    0.0337             !
 ! D104  D(28,29,31,32)         -4.2917         D2E/DX2 =    0.0289             !
 ! D105  D(28,29,31,59)       -175.9575         D2E/DX2 =    0.0468             !
 ! D106  D(30,29,31,32)        175.9541         D2E/DX2 =    0.0274             !
 ! D107  D(30,29,31,59)          4.2883         D2E/DX2 =    0.0163             !
 ! D108  D(29,31,32,33)        -81.3425         D2E/DX2 =    0.082              !
 ! D109  D(29,31,32,35)        153.3034         D2E/DX2 =    0.0459             !
 ! D110  D(29,31,32,58)         36.6851         D2E/DX2 =    0.0321             !
 ! D111  D(59,31,32,33)         90.2176         D2E/DX2 =    0.0394             !
 ! D112  D(59,31,32,35)        -35.1365         D2E/DX2 =    0.0292             !
 ! D113  D(59,31,32,58)       -151.7548         D2E/DX2 =    0.0189             !
 ! D114  D(31,32,33,34)        146.6583         D2E/DX2 =    0.0652             !
 ! D115  D(31,32,33,37)        -37.5009         D2E/DX2 =    0.0949             !
 ! D116  D(35,32,33,34)        -86.2919         D2E/DX2 =    0.0343             !
 ! D117  D(35,32,33,37)         89.5488         D2E/DX2 =    0.0923             !
 ! D118  D(58,32,33,34)         26.2146         D2E/DX2 =    0.0233             !
 ! D119  D(58,32,33,37)       -157.9446         D2E/DX2 =    0.0656             !
 ! D120  D(31,32,35,36)         45.2908         D2E/DX2 =    0.028              !
 ! D121  D(31,32,35,56)        -71.017          D2E/DX2 =    0.0235             !
 ! D122  D(31,32,35,57)        171.9373         D2E/DX2 =    0.0255             !
 ! D123  D(33,32,35,36)        -83.9187         D2E/DX2 =    0.0354             !
 ! D124  D(33,32,35,56)        159.7735         D2E/DX2 =    0.0259             !
 ! D125  D(33,32,35,57)         42.7278         D2E/DX2 =    0.0236             !
 ! D126  D(58,32,35,36)        164.086          D2E/DX2 =    0.02               !
 ! D127  D(58,32,35,56)         47.7781         D2E/DX2 =    0.0151             !
 ! D128  D(58,32,35,57)        -69.2675         D2E/DX2 =    0.0169             !
 ! D129  D(32,33,37,38)       -154.4832         D2E/DX2 =    0.1461             !
 ! D130  D(32,33,37,63)          8.1283         D2E/DX2 =    0.0404             !
 ! D131  D(34,33,37,38)         21.0837         D2E/DX2 =    0.0678             !
 ! D132  D(34,33,37,63)       -176.3047         D2E/DX2 =    0.0549             !
 ! D133  D(33,37,38,39)        114.5298         D2E/DX2 =    0.1396             !
 ! D134  D(33,37,38,40)       -124.5823         D2E/DX2 =    0.0603             !
 ! D135  D(33,37,38,62)         -4.7246         D2E/DX2 =    0.0404             !
 ! D136  D(63,37,38,39)        -48.8326         D2E/DX2 =    0.0525             !
 ! D137  D(63,37,38,40)         72.0553         D2E/DX2 =    0.0252             !
 ! D138  D(63,37,38,62)       -168.087          D2E/DX2 =    0.0321             !
 ! D139  D(37,38,39,60)       -161.7101         D2E/DX2 =    0.0436             !
 ! D140  D(37,38,39,61)         76.9396         D2E/DX2 =    0.0278             !
 ! D141  D(37,38,39,68)        -44.574          D2E/DX2 =    0.081              !
 ! D142  D(40,38,39,60)         77.5052         D2E/DX2 =    0.0207             !
 ! D143  D(40,38,39,61)        -43.8451         D2E/DX2 =    0.0229             !
 ! D144  D(40,38,39,68)       -165.3587         D2E/DX2 =    0.0605             !
 ! D145  D(62,38,39,60)        -45.2778         D2E/DX2 =    0.0175             !
 ! D146  D(62,38,39,61)       -166.6282         D2E/DX2 =    0.0365             !
 ! D147  D(62,38,39,68)         71.8583         D2E/DX2 =    0.0467             !
 ! D148  D(37,38,40,41)        -80.7454         D2E/DX2 =    0.0907             !
 ! D149  D(37,38,40,42)         99.1712         D2E/DX2 =    0.1013             !
 ! D150  D(39,38,40,41)         40.5211         D2E/DX2 =    0.0692             !
 ! D151  D(39,38,40,42)       -139.5623         D2E/DX2 =    0.0722             !
 ! D152  D(62,38,40,41)        162.7916         D2E/DX2 =    0.0157             !
 ! D153  D(62,38,40,42)        -17.2918         D2E/DX2 =    0.0167             !
 ! D154  D(38,39,68,1)         120.5345         D2E/DX2 =    0.2347             !
 ! D155  D(60,39,68,1)        -119.002          D2E/DX2 =    0.0863             !
 ! D156  D(61,39,68,1)          -3.239          D2E/DX2 =    0.0867             !
 ! D157  D(38,40,42,43)        -10.0873         D2E/DX2 =    0.0107             !
 ! D158  D(38,40,42,66)       -173.4082         D2E/DX2 =    0.0112             !
 ! D159  D(41,40,42,43)        169.8282         D2E/DX2 =    0.0189             !
 ! D160  D(41,40,42,66)          6.5073         D2E/DX2 =    0.013              !
 ! D161  D(40,42,43,44)       -158.8104         D2E/DX2 =    0.0135             !
 ! D162  D(40,42,43,64)         82.5585         D2E/DX2 =    0.0158             !
 ! D163  D(40,42,43,65)        -38.8154         D2E/DX2 =    0.0146             !
 ! D164  D(66,42,43,44)          4.577          D2E/DX2 =    0.0128             !
 ! D165  D(66,42,43,64)       -114.0542         D2E/DX2 =    0.0158             !
 ! D166  D(66,42,43,65)        124.572          D2E/DX2 =    0.0151             !
 ! D167  D(42,43,44,45)         -5.2684         D2E/DX2 =    0.0209             !
 ! D168  D(42,43,44,46)        176.6855         D2E/DX2 =    0.0223             !
 ! D169  D(64,43,44,45)        116.2554         D2E/DX2 =    0.0195             !
 ! D170  D(64,43,44,46)        -61.7908         D2E/DX2 =    0.0196             !
 ! D171  D(65,43,44,45)       -127.756          D2E/DX2 =    0.0199             !
 ! D172  D(65,43,44,46)         54.1979         D2E/DX2 =    0.0202             !
 ! D173  D(43,44,46,67)        179.9628         D2E/DX2 =    0.0164             !
 ! D174  D(45,44,46,67)          1.8841         D2E/DX2 =    0.0165             !
 ! D175  D(20,69,70,72)        178.3736         D2E/DX2 =    0.0098             !
 ! D176  D(20,69,70,73)         -1.972          D2E/DX2 =    0.0099             !
 ! D177  D(71,69,70,72)         -2.8025         D2E/DX2 =    0.0096             !
 ! D178  D(71,69,70,73)        176.8519         D2E/DX2 =    0.0087             !
 ! D179  D(20,69,71,74)       -177.456          D2E/DX2 =    0.0093             !
 ! D180  D(20,69,71,79)          1.2832         D2E/DX2 =    0.0153             !
 ! D181  D(70,69,71,74)          3.7361         D2E/DX2 =    0.0078             !
 ! D182  D(70,69,71,79)       -177.5247         D2E/DX2 =    0.0192             !
 ! D183  D(69,70,72,75)          0.1179         D2E/DX2 =    0.0091             !
 ! D184  D(69,70,72,76)        179.6644         D2E/DX2 =    0.0085             !
 ! D185  D(73,70,72,75)       -179.528          D2E/DX2 =    0.0087             !
 ! D186  D(73,70,72,76)          0.0185         D2E/DX2 =    0.0086             !
 ! D187  D(69,71,74,75)         -2.112          D2E/DX2 =    0.0069             !
 ! D188  D(69,71,74,77)        179.4031         D2E/DX2 =    0.0067             !
 ! D189  D(79,71,74,75)        179.129          D2E/DX2 =    0.014              !
 ! D190  D(79,71,74,77)          0.6441         D2E/DX2 =    0.0116             !
 ! D191  D(69,71,79,80)         35.577          D2E/DX2 =    0.0156             !
 ! D192  D(69,71,79,81)        162.1983         D2E/DX2 =    0.0244             !
 ! D193  D(74,71,79,80)       -145.6949         D2E/DX2 =    0.0225             !
 ! D194  D(74,71,79,81)        -19.0735         D2E/DX2 =    0.0143             !
 ! D195  D(70,72,75,74)          1.6231         D2E/DX2 =    0.0092             !
 ! D196  D(70,72,75,78)       -179.8187         D2E/DX2 =    0.0081             !
 ! D197  D(76,72,75,74)       -177.9223         D2E/DX2 =    0.0084             !
 ! D198  D(76,72,75,78)          0.6358         D2E/DX2 =    0.0082             !
 ! D199  D(71,74,75,72)         -0.6055         D2E/DX2 =    0.0088             !
 ! D200  D(71,74,75,78)       -179.175          D2E/DX2 =    0.0082             !
 ! D201  D(77,74,75,72)        177.8517         D2E/DX2 =    0.0097             !
 ! D202  D(77,74,75,78)         -0.7178         D2E/DX2 =    0.0087             !
 --------------------------------------------------------------------------------
 Trust Radius=3.00D-01 FncErr=1.00D-07 GrdErr=1.00D-06
 Number of steps in this run=    447 maximum allowed number of steps=    516.
 Search for a saddle point of order  1.
 GradGradGradGradGradGradGradGradGradGradGradGradGradGradGradGradGradGrad

 Stoichiometry    C25H42AuN6O8PS2Se
 Framework group  C1[X(C25H42AuN6O8PS2Se)]
 Deg. of freedom   252
 Full point group                 C1      NOp   1
 Largest Abelian subgroup         C1      NOp   1
 Largest concise Abelian subgroup C1      NOp   1
                         Standard orientation:                         
 ---------------------------------------------------------------------
 Center     Atomic      Atomic             Coordinates (Angstroms)
 Number     Number       Type             X           Y           Z
 ---------------------------------------------------------------------
      1         79           0       -2.490863   -0.840533   -0.108435
      2         15           0       -4.540071    0.098834    0.556089
      3          6           0       -4.582415    1.935958    0.731187
      4          1           0       -5.597688    2.219344    1.034486
      5          1           0       -4.405310    2.350502   -0.267187
      6          6           0       -5.110679   -0.589519    2.165106
      7          1           0       -4.261782   -0.480175    2.852641
      8          1           0       -5.221960   -1.665606    1.988629
      9          6           0       -5.823948    0.068878   -1.775670
     10          1           0       -5.957527    1.149622   -1.877593
     11          1           0       -4.851986   -0.196799   -2.197648
     12          6           0       -6.395921    0.003748    2.757582
     13          1           0       -6.643908   -0.508868    3.692907
     14          1           0       -6.286292    1.068090    2.987728
     15          1           0       -7.241069   -0.113769    2.072842
     16          6           0       -3.525423    2.483320    1.700734
     17          1           0       -2.516844    2.196998    1.386210
     18          1           0       -3.567918    3.577309    1.717886
     19          1           0       -3.679378    2.124100    2.724465
     20         16           0       -1.878130    0.030263   -2.432076
     21          7           0        6.853500    2.960078   -0.051572
     22          6           0        5.477601    2.701892    0.379855
     23          6           0        5.280520    1.219726    0.752973
     24          8           0        5.731590    0.346900    0.013802
     25          6           0        4.541748    3.086711   -0.783358
     26          8           0        3.173906    2.825192   -0.512451
     27          7           0        4.676816    0.875539    1.937216
     28          6           0        3.926657    1.723142    2.854337
     29          6           0        2.487771    2.049682    2.401169
     30          8           0        2.192537    3.199213    2.064064
     31          7           0        1.574226    1.043350    2.392487
     32          6           0        1.816754   -0.357152    2.686246
     33          6           0        2.397031   -1.192512    1.533302
     34          8           0        3.174008   -2.111399    1.810055
     35          6           0        0.546842   -1.066438    3.221997
     36         16           0       -1.047577   -0.767517    2.357510
     37          7           0        1.951192   -0.922388    0.286491
     38          6           0        1.989087   -1.956375   -0.746061
     39          6           0        0.562093   -2.340134   -1.170746
     40          6           0        2.775466   -1.435440   -1.970970
     41          8           0        2.233624   -0.700457   -2.795716
     42          7           0        4.071145   -1.816169   -2.095732
     43          6           0        4.906934   -2.500018   -1.127013
     44          6           0        6.357852   -2.245081   -1.485317
     45          8           0        6.738380   -1.657554   -2.473389
     46          8           0        7.186623   -2.796491   -0.578153
     47          1           0        4.720619    4.142443   -1.025929
     48          1           0        4.801175    2.485198   -1.659639
     49          1           0        2.896844    3.293448    0.298852
     50          1           0        5.260693    3.360347    1.227307
     51          1           0        7.123211    2.200485   -0.678212
     52          1           0        7.483320    2.899232    0.747169
     53          1           0        4.422292    2.686082    2.982373
     54          1           0        3.919991    1.232380    3.833498
     55          1           0        4.609511   -0.130504    2.065564
     56          1           0        0.346222   -0.697306    4.235672
     57          1           0        0.750055   -2.138542    3.286486
     58          1           0        2.556929   -0.434310    3.487865
     59          1           0        0.655710    1.286866    2.026553
     60          1           0        0.561202   -3.308906   -1.683593
     61          1           0        0.123991   -1.591162   -1.830677
     62          1           0        2.490842   -2.810665   -0.290335
     63          1           0        1.350893   -0.112923    0.103546
     64          1           0        4.748584   -3.588442   -1.135862
     65          1           0        4.735268   -2.152012   -0.105369
     66          1           0        4.580419   -1.369893   -2.853991
     67          1           0        8.093175   -2.591919   -0.875402
     68         34           0       -0.682511   -2.581911    0.380191
     69          6           0       -1.641555    1.749624   -2.087112
     70          6           0       -2.672026    2.673892   -2.355685
     71          6           0       -0.409834    2.240326   -1.559999
     72          6           0       -2.539243    4.028356   -2.068634
     73          1           0       -3.586145    2.296192   -2.805457
     74          6           0       -0.298302    3.610919   -1.254469
     75          6           0       -1.345796    4.491291   -1.497653
     76          1           0       -3.348655    4.718387   -2.291775
     77          1           0        0.639739    3.975140   -0.844155
     78          1           0       -1.223634    5.545736   -1.263192
     79          7           0        0.667464    1.386937   -1.320045
     80          1           0        0.756837    0.633632   -2.002127
     81          1           0        1.557558    1.878465   -1.224347
     82          6           0       -6.972089   -0.673702   -2.433649
     83          1           0       -7.946190   -0.402682   -1.976322
     84          1           0       -7.005133   -0.410223   -3.502179
     85          1           0       -6.826547   -1.764927   -2.331465
     86          8           0       -5.827712   -0.268864   -0.376895
 ---------------------------------------------------------------------
 Rotational constants (GHZ):      0.0926072      0.0355240      0.0332494
 General basis read from cards:  (5D, 7F)
 ======================================================================================================
                                       Pseudopotential Parameters
 ======================================================================================================
  Center     Atomic      Valence      Angular      Power
  Number     Number     Electrons     Momentum     of R      Exponent        Coefficient   SO-Coeffient
 ======================================================================================================
    1         79           19
                                      G and up 
                                                     1      622.6287956      -60.00000000    0.00000000
                                                     2      136.2843607     -555.52923120    0.00000000
                                                     2       33.1549781     -168.00197850    0.00000000
                                                     2        9.9894895      -63.03998750    0.00000000
                                                     2        3.0481312       -4.25166810    0.00000000
                                      S - G
                                                     0      194.7374304        3.00000000    0.00000000
                                                     1      351.5327447       38.60208800    0.00000000
                                                     2      122.3270402      864.83707270    0.00000000
                                                     2       32.0914617      374.99355200    0.00000000
                                                     2        5.2451812      289.79101000    0.00000000
                                                     2        4.4916223     -152.45327730    0.00000000
                                      P - G
                                                     0      420.6158801        2.00000000    0.00000000
                                                     1      109.4417815       73.88856250    0.00000000
                                                     2       34.1714280      326.67298720    0.00000000
                                                     2        5.9879750      126.58145910    0.00000000
                                      D - G
                                                     0      219.2666158        3.00000000    0.00000000
                                                     1      122.7297786       55.67931490    0.00000000
                                                     2       63.1063369      449.19873350    0.00000000
                                                     2       18.3684520      215.02690910    0.00000000
                                                     2        4.4972844       64.08409950    0.00000000
                                      F - G
                                                     0      108.5506037        4.00000000    0.00000000
                                                     1       56.4795527       51.80653350    0.00000000
                                                     2       29.2069159      231.21831130    0.00000000
                                                     2        9.5440543      119.00473860    0.00000000
                                                     2        2.8965118       15.34241880    0.00000000
    2         15
                                   No pseudopotential on this center.
    3          6
                                   No pseudopotential on this center.
    4          1
                                   No pseudopotential on this center.
    5          1
                                   No pseudopotential on this center.
    6          6
                                   No pseudopotential on this center.
    7          1
                                   No pseudopotential on this center.
    8          1
                                   No pseudopotential on this center.
    9          6
                                   No pseudopotential on this center.
   10          1
                                   No pseudopotential on this center.
   11          1
                                   No pseudopotential on this center.
   12          6
                                   No pseudopotential on this center.
   13          1
                                   No pseudopotential on this center.
   14          1
                                   No pseudopotential on this center.
   15          1
                                   No pseudopotential on this center.
   16          6
                                   No pseudopotential on this center.
   17          1
                                   No pseudopotential on this center.
   18          1
                                   No pseudopotential on this center.
   19          1
                                   No pseudopotential on this center.
   20         16
                                   No pseudopotential on this center.
   21          7
                                   No pseudopotential on this center.
   22          6
                                   No pseudopotential on this center.
   23          6
                                   No pseudopotential on this center.
   24          8
                                   No pseudopotential on this center.
   25          6
                                   No pseudopotential on this center.
   26          8
                                   No pseudopotential on this center.
   27          7
                                   No pseudopotential on this center.
   28          6
                                   No pseudopotential on this center.
   29          6
                                   No pseudopotential on this center.
   30          8
                                   No pseudopotential on this center.
   31          7
                                   No pseudopotential on this center.
   32          6
                                   No pseudopotential on this center.
   33          6
                                   No pseudopotential on this center.
   34          8
                                   No pseudopotential on this center.
   35          6
                                   No pseudopotential on this center.
   36         16
                                   No pseudopotential on this center.
   37          7
                                   No pseudopotential on this center.
   38          6
                                   No pseudopotential on this center.
   39          6
                                   No pseudopotential on this center.
   40          6
                                   No pseudopotential on this center.
   41          8
                                   No pseudopotential on this center.
   42          7
                                   No pseudopotential on this center.
   43          6
                                   No pseudopotential on this center.
   44          6
                                   No pseudopotential on this center.
   45          8
                                   No pseudopotential on this center.
   46          8
                                   No pseudopotential on this center.
   47          1
                                   No pseudopotential on this center.
   48          1
                                   No pseudopotential on this center.
   49          1
                                   No pseudopotential on this center.
   50          1
                                   No pseudopotential on this center.
   51          1
                                   No pseudopotential on this center.
   52          1
                                   No pseudopotential on this center.
   53          1
                                   No pseudopotential on this center.
   54          1
                                   No pseudopotential on this center.
   55          1
                                   No pseudopotential on this center.
   56          1
                                   No pseudopotential on this center.
   57          1
                                   No pseudopotential on this center.
   58          1
                                   No pseudopotential on this center.
   59          1
                                   No pseudopotential on this center.
   60          1
                                   No pseudopotential on this center.
   61          1
                                   No pseudopotential on this center.
   62          1
                                   No pseudopotential on this center.
   63          1
                                   No pseudopotential on this center.
   64          1
                                   No pseudopotential on this center.
   65          1
                                   No pseudopotential on this center.
   66          1
                                   No pseudopotential on this center.
   67          1
                                   No pseudopotential on this center.
   68         34
                                   No pseudopotential on this center.
   69          6
                                   No pseudopotential on this center.
   70          6
                                   No pseudopotential on this center.
   71          6
                                   No pseudopotential on this center.
   72          6
                                   No pseudopotential on this center.
   73          1
                                   No pseudopotential on this center.
   74          6
                                   No pseudopotential on this center.
   75          6
                                   No pseudopotential on this center.
   76          1
                                   No pseudopotential on this center.
   77          1
                                   No pseudopotential on this center.
   78          1
                                   No pseudopotential on this center.
   79          7
                                   No pseudopotential on this center.
   80          1
                                   No pseudopotential on this center.
   81          1
                                   No pseudopotential on this center.
   82          6
                                   No pseudopotential on this center.
   83          1
                                   No pseudopotential on this center.
   84          1
                                   No pseudopotential on this center.
   85          1
                                   No pseudopotential on this center.
   86          8
                                   No pseudopotential on this center.
 ======================================================================================================
 There are   804 symmetry adapted cartesian basis functions of A   symmetry.
 There are   754 symmetry adapted basis functions of A   symmetry.
   754 basis functions,  1547 primitive gaussians,   804 cartesian basis functions
   199 alpha electrons      199 beta electrons
       nuclear repulsion energy      8340.2537794727 Hartrees.
 NAtoms=   86 NActive=   86 NUniq=   86 SFac= 1.00D+00 NAtFMM=   60 NAOKFM=T Big=T
 Integral buffers will be    131072 words long.
 Raffenetti 2 integral format.
 Two-electron integral symmetry is turned on.
 One-electron integrals computed using PRISM.
   1 Symmetry operations used in ECPInt.
 ECPInt:  NShTT=   39621 NPrTT=  241455 LenC2=   29188 LenP2D=   89788.
 LDataN:  DoStor=T MaxTD1= 7 Len=  274
 NBasis=   754 RedAO= T EigKep=  4.68D-04  NBF=   754
 NBsUse=   754 1.00D-06 EigRej= -1.00D+00 NBFU=   754
 Defaulting to unpruned grid for atomic number  79.
 ExpMin= 2.79D-02 ExpMax= 5.61D+05 ExpMxC= 5.42D+03 IAcc=3 IRadAn=         5 AccDes= 0.00D+00
 Harris functional with IExCor=  402 and IRadAn=       5 diagonalized for initial guess.
 HarFok:  IExCor=  402 AccDes= 0.00D+00 IRadAn=         5 IDoV= 1 UseB2=F ITyADJ=14
 ICtDFT=  3500011 ScaDFX=  1.000000  1.000000  1.000000  1.000000
 Defaulting to unpruned grid for atomic number  79.
 Defaulting to unpruned grid for atomic number  79.
 Defaulting to unpruned grid for atomic number  79.
 Defaulting to unpruned grid for atomic number  79.
 Defaulting to unpruned grid for atomic number  79.
 Defaulting to unpruned grid for atomic number  79.
 Defaulting to unpruned grid for atomic number  79.
 Defaulting to unpruned grid for atomic number  79.
 Defaulting to unpruned grid for atomic number  79.
 Defaulting to unpruned grid for atomic number  79.
 Defaulting to unpruned grid for atomic number  79.
 Defaulting to unpruned grid for atomic number  79.
 Defaulting to unpruned grid for atomic number  79.
 Defaulting to unpruned grid for atomic number  79.
 Defaulting to unpruned grid for atomic number  79.
 FoFCou: FMM=F IPFlag=           0 FMFlag=      100000 FMFlg1=        2001
         NFxFlg=           0 DoJE=T BraDBF=F KetDBF=T FulRan=T
         wScrn=  0.000000 ICntrl=     500 IOpCl=  0 I1Cent=   200000004 NGrid=           0
         NMat0=    1 NMatS0=      1 NMatT0=    0 NMatD0=    1 NMtDS0=    0 NMtDT0=    0
 Petite list used in FoFCou.
 Requested convergence on RMS density matrix=1.00D-08 within 128 cycles.
 Requested convergence on MAX density matrix=1.00D-06.
 Requested convergence on             energy=1.00D-06.
 No special actions if energy rises.
 Defaulting to unpruned grid for atomic number  79.
 Defaulting to unpruned grid for atomic number  79.
 Defaulting to unpruned grid for atomic number  79.
 Defaulting to unpruned grid for atomic number  79.
 Defaulting to unpruned grid for atomic number  79.
 Defaulting to unpruned grid for atomic number  79.
 Defaulting to unpruned grid for atomic number  79.
 Defaulting to unpruned grid for atomic number  79.
 Defaulting to unpruned grid for atomic number  79.
 Defaulting to unpruned grid for atomic number  79.
 Defaulting to unpruned grid for atomic number  79.
 Defaulting to unpruned grid for atomic number  79.
 Defaulting to unpruned grid for atomic number  79.
 Defaulting to unpruned grid for atomic number  79.
 Defaulting to unpruned grid for atomic number  79.
 EnCoef did     7 forward-backward iterations
 EnCoef did   100 forward-backward iterations
 EnCoef did     3 forward-backward iterations
 EnCoef did     3 forward-backward iterations
 Restarting incremental Fock formation.
 SCF Done:  E(RB3LYP) =  -5580.45257118     A.U. after   22 cycles
            NFock= 22  Conv=0.28D-08     -V/T= 2.0180

 **********************************************************************

            Population analysis using the SCF density.

 **********************************************************************

 Orbital symmetries:
       Occupied  (A) (A) (A) (A) (A) (A) (A) (A) (A) (A) (A) (A)
                 (A) (A) (A) (A) (A) (A) (A) (A) (A) (A) (A) (A)
                 (A) (A) (A) (A) (A) (A) (A) (A) (A) (A) (A) (A)
                 (A) (A) (A) (A) (A) (A) (A) (A) (A) (A) (A) (A)
                 (A) (A) (A) (A) (A) (A) (A) (A) (A) (A) (A) (A)
                 (A) (A) (A) (A) (A) (A) (A) (A) (A) (A) (A) (A)
                 (A) (A) (A) (A) (A) (A) (A) (A) (A) (A) (A) (A)
                 (A) (A) (A) (A) (A) (A) (A) (A) (A) (A) (A) (A)
                 (A) (A) (A) (A) (A) (A) (A) (A) (A) (A) (A) (A)
                 (A) (A) (A) (A) (A) (A) (A) (A) (A) (A) (A) (A)
                 (A) (A) (A) (A) (A) (A) (A) (A) (A) (A) (A) (A)
                 (A) (A) (A) (A) (A) (A) (A) (A) (A) (A) (A) (A)
                 (A) (A) (A) (A) (A) (A) (A) (A) (A) (A) (A) (A)
                 (A) (A) (A) (A) (A) (A) (A) (A) (A) (A) (A) (A)
                 (A) (A) (A) (A) (A) (A) (A) (A) (A) (A) (A) (A)
                 (A) (A) (A) (A) (A) (A) (A) (A) (A) (A) (A) (A)
                 (A) (A) (A) (A) (A) (A) (A)
       Virtual   (A) (A) (A) (A) (A) (A) (A) (A) (A) (A) (A) (A)
                 (A) (A) (A) (A) (A) (A) (A) (A) (A) (A) (A) (A)
                 (A) (A) (A) (A) (A) (A) (A) (A) (A) (A) (A) (A)
                 (A) (A) (A) (A) (A) (A) (A) (A) (A) (A) (A) (A)
                 (A) (A) (A) (A) (A) (A) (A) (A) (A) (A) (A) (A)
                 (A) (A) (A) (A) (A) (A) (A) (A) (A) (A) (A) (A)
                 (A) (A) (A) (A) (A) (A) (A) (A) (A) (A) (A) (A)
                 (A) (A) (A) (A) (A) (A) (A) (A) (A) (A) (A) (A)
                 (A) (A) (A) (A) (A) (A) (A) (A) (A) (A) (A) (A)
                 (A) (A) (A) (A) (A) (A) (A) (A) (A) (A) (A) (A)
                 (A) (A) (A) (A) (A) (A) (A) (A) (A) (A) (A) (A)
                 (A) (A) (A) (A) (A) (A) (A) (A) (A) (A) (A) (A)
                 (A) (A) (A) (A) (A) (A) (A) (A) (A) (A) (A) (A)
                 (A) (A) (A) (A) (A) (A) (A) (A) (A) (A) (A) (A)
                 (A) (A) (A) (A) (A) (A) (A) (A) (A) (A) (A) (A)
                 (A) (A) (A) (A) (A) (A) (A) (A) (A) (A) (A) (A)
                 (A) (A) (A) (A) (A) (A) (A) (A) (A) (A) (A) (A)
                 (A) (A) (A) (A) (A) (A) (A) (A) (A) (A) (A) (A)
                 (A) (A) (A) (A) (A) (A) (A) (A) (A) (A) (A) (A)
                 (A) (A) (A) (A) (A) (A) (A) (A) (A) (A) (A) (A)
                 (A) (A) (A) (A) (A) (A) (A) (A) (A) (A) (A) (A)
                 (A) (A) (A) (A) (A) (A) (A) (A) (A) (A) (A) (A)
                 (A) (A) (A) (A) (A) (A) (A) (A) (A) (A) (A) (A)
                 (A) (A) (A) (A) (A) (A) (A) (A) (A) (A) (A) (A)
                 (A) (A) (A) (A) (A) (A) (A) (A) (A) (A) (A) (A)
                 (A) (A) (A) (A) (A) (A) (A) (A) (A) (A) (A) (A)
                 (A) (A) (A) (A) (A) (A) (A) (A) (A) (A) (A) (A)
                 (A) (A) (A) (A) (A) (A) (A) (A) (A) (A) (A) (A)
                 (A) (A) (A) (A) (A) (A) (A) (A) (A) (A) (A) (A)
                 (A) (A) (A) (A) (A) (A) (A) (A) (A) (A) (A) (A)
                 (A) (A) (A) (A) (A) (A) (A) (A) (A) (A) (A) (A)
                 (A) (A) (A) (A) (A) (A) (A) (A) (A) (A) (A) (A)
                 (A) (A) (A) (A) (A) (A) (A) (A) (A) (A) (A) (A)
                 (A) (A) (A) (A) (A) (A) (A) (A) (A) (A) (A) (A)
                 (A) (A) (A) (A) (A) (A) (A) (A) (A) (A) (A) (A)
                 (A) (A) (A) (A) (A) (A) (A) (A) (A) (A) (A) (A)
                 (A) (A) (A) (A) (A) (A) (A) (A) (A) (A) (A) (A)
                 (A) (A) (A) (A) (A) (A) (A) (A) (A) (A) (A) (A)
                 (A) (A) (A) (A) (A) (A) (A) (A) (A) (A) (A) (A)
                 (A) (A) (A) (A) (A) (A) (A) (A) (A) (A) (A) (A)
                 (A) (A) (A) (A) (A) (A) (A) (A) (A) (A) (A) (A)
                 (A) (A) (A) (A) (A) (A) (A) (A) (A) (A) (A) (A)
                 (A) (A) (A) (A) (A) (A) (A) (A) (A) (A) (A) (A)
                 (A) (A) (A) (A) (A) (A) (A) (A) (A) (A) (A) (A)
                 (A) (A) (A) (A) (A) (A) (A) (A) (A) (A) (A) (A)
                 (A) (A) (A) (A) (A) (A) (A) (A) (A) (A) (A) (A)
                 (A) (A) (A)
 The electronic state is 1-A.
 Alpha  occ. eigenvalues -- -453.57969 -88.86832 -88.81608 -77.15059 -57.29827
 Alpha  occ. eigenvalues --  -52.07385 -52.07261 -52.07088 -19.19741 -19.17552
 Alpha  occ. eigenvalues --  -19.14463 -19.14017 -19.13455 -19.12710 -19.12059
 Alpha  occ. eigenvalues --  -19.11147 -14.37742 -14.37071 -14.36278 -14.35346
 Alpha  occ. eigenvalues --  -14.31351 -14.30923 -10.32661 -10.30997 -10.29722
 Alpha  occ. eigenvalues --  -10.29118 -10.28688 -10.25559 -10.24954 -10.24113
 Alpha  occ. eigenvalues --  -10.23752 -10.23017 -10.22918 -10.22421 -10.22159
 Alpha  occ. eigenvalues --  -10.21222 -10.20570 -10.20463 -10.20029 -10.19288
 Alpha  occ. eigenvalues --  -10.19040 -10.18562 -10.18224 -10.17316 -10.17156
 Alpha  occ. eigenvalues --  -10.16687 -10.16503  -7.94046  -7.88948  -7.64800
 Alpha  occ. eigenvalues --   -6.62392  -5.90439  -5.90180  -5.89478  -5.85316
 Alpha  occ. eigenvalues --   -5.85043  -5.84444  -5.77753  -5.77324  -5.76752
 Alpha  occ. eigenvalues --   -4.78777  -4.78448  -4.78268  -4.17789  -2.32019
 Alpha  occ. eigenvalues --   -2.30836  -2.30233  -2.13809  -2.13782  -2.13307
 Alpha  occ. eigenvalues --   -2.12953  -2.12876  -1.11381  -1.05746  -1.05180
 Alpha  occ. eigenvalues --   -1.04768  -1.04194  -1.03355  -1.02387  -1.01713
 Alpha  occ. eigenvalues --   -0.95330  -0.93577  -0.93039  -0.92320  -0.89830
 Alpha  occ. eigenvalues --   -0.89099  -0.82262  -0.80837  -0.80693  -0.78391
 Alpha  occ. eigenvalues --   -0.77203  -0.76307  -0.75127  -0.75019  -0.74972
 Alpha  occ. eigenvalues --   -0.72909  -0.71931  -0.71320  -0.70280  -0.67850
 Alpha  occ. eigenvalues --   -0.65348  -0.65251  -0.64238  -0.63045  -0.62912
 Alpha  occ. eigenvalues --   -0.62333  -0.61844  -0.60952  -0.59862  -0.58975
 Alpha  occ. eigenvalues --   -0.58219  -0.58009  -0.57132  -0.56382  -0.54931
 Alpha  occ. eigenvalues --   -0.53136  -0.51800  -0.51321  -0.50738  -0.50423
 Alpha  occ. eigenvalues --   -0.50319  -0.50178  -0.49773  -0.49181  -0.49128
 Alpha  occ. eigenvalues --   -0.48824  -0.48421  -0.48144  -0.47763  -0.46852
 Alpha  occ. eigenvalues --   -0.46426  -0.46156  -0.45644  -0.45486  -0.44921
 Alpha  occ. eigenvalues --   -0.44810  -0.44070  -0.43959  -0.43849  -0.43467
 Alpha  occ. eigenvalues --   -0.42930  -0.42837  -0.42602  -0.42346  -0.41894
 Alpha  occ. eigenvalues --   -0.41711  -0.41606  -0.41352  -0.41098  -0.40880
 Alpha  occ. eigenvalues --   -0.40199  -0.40142  -0.39615  -0.39542  -0.39184
 Alpha  occ. eigenvalues --   -0.38902  -0.38531  -0.38287  -0.38106  -0.37990
 Alpha  occ. eigenvalues --   -0.37695  -0.37526  -0.37251  -0.37208  -0.37032
 Alpha  occ. eigenvalues --   -0.36970  -0.36120  -0.35860  -0.34938  -0.34626
 Alpha  occ. eigenvalues --   -0.34157  -0.33707  -0.32982  -0.32589  -0.32472
 Alpha  occ. eigenvalues --   -0.31908  -0.31626  -0.30745  -0.30225  -0.30033
 Alpha  occ. eigenvalues --   -0.29435  -0.29179  -0.28932  -0.28767  -0.27952
 Alpha  occ. eigenvalues --   -0.27555  -0.26997  -0.26829  -0.25722  -0.25510
 Alpha  occ. eigenvalues --   -0.25197  -0.25142  -0.24379  -0.24219  -0.24075
 Alpha  occ. eigenvalues --   -0.23592  -0.20302  -0.19855  -0.17186
 Alpha virt. eigenvalues --   -0.12697  -0.01683  -0.01292  -0.00682  -0.00418
 Alpha virt. eigenvalues --    0.00298   0.00924   0.01252   0.01376   0.02628
 Alpha virt. eigenvalues --    0.02714   0.03596   0.04821   0.05201   0.05508
 Alpha virt. eigenvalues --    0.06147   0.07008   0.07134   0.07821   0.08036
 Alpha virt. eigenvalues --    0.09164   0.09479   0.09988   0.10425   0.10740
 Alpha virt. eigenvalues --    0.11296   0.11471   0.11750   0.12180   0.12502
 Alpha virt. eigenvalues --    0.12949   0.13171   0.13589   0.13677   0.14126
 Alpha virt. eigenvalues --    0.14560   0.14635   0.14865   0.15091   0.15559
 Alpha virt. eigenvalues --    0.15752   0.15850   0.16085   0.16380   0.16654
 Alpha virt. eigenvalues --    0.16816   0.16966   0.17450   0.17564   0.17873
 Alpha virt. eigenvalues --    0.18191   0.18281   0.18535   0.18753   0.18901
 Alpha virt. eigenvalues --    0.19343   0.19545   0.19828   0.20110   0.20263
 Alpha virt. eigenvalues --    0.20539   0.20937   0.21054   0.21372   0.21717
 Alpha virt. eigenvalues --    0.21998   0.22145   0.22462   0.22950   0.23323
 Alpha virt. eigenvalues --    0.23393   0.23939   0.24253   0.24749   0.25124
 Alpha virt. eigenvalues --    0.25312   0.25861   0.26006   0.26237   0.26986
 Alpha virt. eigenvalues --    0.27801   0.28197   0.28347   0.30751   0.31638
 Alpha virt. eigenvalues --    0.32245   0.32884   0.32997   0.33563   0.33850
 Alpha virt. eigenvalues --    0.34745   0.35017   0.35588   0.35863   0.36538
 Alpha virt. eigenvalues --    0.36943   0.37433   0.37836   0.38562   0.39457
 Alpha virt. eigenvalues --    0.40511   0.40607   0.41302   0.41527   0.41816
 Alpha virt. eigenvalues --    0.42169   0.42950   0.44070   0.44789   0.45144
 Alpha virt. eigenvalues --    0.45675   0.46544   0.47054   0.47384   0.48318
 Alpha virt. eigenvalues --    0.49051   0.49203   0.50501   0.51186   0.51764
 Alpha virt. eigenvalues --    0.51970   0.52131   0.52467   0.53072   0.53323
 Alpha virt. eigenvalues --    0.54062   0.54196   0.54631   0.54936   0.55333
 Alpha virt. eigenvalues --    0.55557   0.55783   0.56165   0.56647   0.56941
 Alpha virt. eigenvalues --    0.57324   0.57666   0.57686   0.58027   0.58500
 Alpha virt. eigenvalues --    0.58759   0.59199   0.59471   0.59606   0.59993
 Alpha virt. eigenvalues --    0.60383   0.60825   0.61267   0.61605   0.62133
 Alpha virt. eigenvalues --    0.62397   0.62783   0.62897   0.63456   0.63636
 Alpha virt. eigenvalues --    0.64149   0.64250   0.64768   0.65203   0.65368
 Alpha virt. eigenvalues --    0.65610   0.65830   0.66209   0.66459   0.67076
 Alpha virt. eigenvalues --    0.67744   0.68169   0.68381   0.68649   0.68868
 Alpha virt. eigenvalues --    0.69450   0.69703   0.70232   0.70690   0.71417
 Alpha virt. eigenvalues --    0.71608   0.72023   0.72589   0.72690   0.73426
 Alpha virt. eigenvalues --    0.73690   0.74107   0.75038   0.75273   0.76040
 Alpha virt. eigenvalues --    0.76318   0.76558   0.77214   0.77229   0.77760
 Alpha virt. eigenvalues --    0.78694   0.79346   0.79827   0.79964   0.80070
 Alpha virt. eigenvalues --    0.80699   0.81174   0.81809   0.81902   0.82627
 Alpha virt. eigenvalues --    0.83280   0.83562   0.83857   0.84329   0.84742
 Alpha virt. eigenvalues --    0.84940   0.85080   0.85424   0.85532   0.85807
 Alpha virt. eigenvalues --    0.86189   0.86478   0.86714   0.87003   0.87187
 Alpha virt. eigenvalues --    0.87588   0.87777   0.87921   0.88027   0.88195
 Alpha virt. eigenvalues --    0.88547   0.88919   0.89014   0.89232   0.89691
 Alpha virt. eigenvalues --    0.90355   0.90608   0.90898   0.91253   0.91614
 Alpha virt. eigenvalues --    0.91842   0.92116   0.92251   0.92755   0.92956
 Alpha virt. eigenvalues --    0.93333   0.93858   0.94219   0.94557   0.94813
 Alpha virt. eigenvalues --    0.94981   0.95156   0.95723   0.95840   0.96288
 Alpha virt. eigenvalues --    0.96594   0.96857   0.97334   0.97447   0.97890
 Alpha virt. eigenvalues --    0.98189   0.98426   0.98728   0.98930   0.99116
 Alpha virt. eigenvalues --    0.99676   1.00052   1.00939   1.01272   1.02105
 Alpha virt. eigenvalues --    1.02617   1.02865   1.03229   1.03409   1.03832
 Alpha virt. eigenvalues --    1.04757   1.04991   1.05514   1.06148   1.06357
 Alpha virt. eigenvalues --    1.06815   1.07482   1.08188   1.08588   1.09037
 Alpha virt. eigenvalues --    1.09266   1.09993   1.10640   1.11302   1.11474
 Alpha virt. eigenvalues --    1.12814   1.13295   1.13646   1.14171   1.15241
 Alpha virt. eigenvalues --    1.15784   1.16173   1.17317   1.17400   1.17961
 Alpha virt. eigenvalues --    1.18535   1.18896   1.19101   1.19762   1.21870
 Alpha virt. eigenvalues --    1.22270   1.23110   1.23864   1.25345   1.25906
 Alpha virt. eigenvalues --    1.27287   1.28493   1.28949   1.29913   1.30359
 Alpha virt. eigenvalues --    1.31149   1.32380   1.32669   1.33196   1.34089
[...]
 -0.00000239,0.00000453,-0.00000027,0.00000083,0.00000536,-0.00000185,0
 .00000282,0.00000033,0.00000055,-0.00000019,-0.00000023,-0.00000006,0.
 00000015,0.00000052,-0.00000109,0.00000072,0.,0.00000017,0.00000023,-0
 .00000053,-0.00000049,0.00000015,-0.00000019,-0.00000076,0.00000018,0.
 00000031,0.00000041,-0.00000027,-0.00000022,-0.00000057,-0.00000020,-0
 .00000234,-0.00000092,-0.00000101,0.00000555,0.00000115,0.00000283,0.0
 0000216,0.00000078,-0.00000251,0.00000124,0.00000130,-0.00000004,-0.00
 000055,-0.00000238,-0.00000119,-0.00000689,0.00000179,0.00000045,-0.00
 000208,-0.00000426,-0.00000173,0.00000062,0.00000049,0.00000008,0.0000
 0018,-0.00000082,-0.00000081,0.00000014,-0.00000049,0.00000051,-0.0000
 0049,-0.00000061,0.00000061,-0.00000195,-0.00000117,0.00000032,-0.0000
 0091,0.00000035,-0.00000062,-0.00001685,0.00002555,0.00001388,0.000021
 19,-0.00004825,-0.00000273,0.00006964,0.00000977,0.00006900,-0.0000090
 2,0.00002892,-0.00000713,-0.00002048,0.00002953,0.00000469,0.00000240,
 -0.00000036,-0.00005371,-0.00000269,-0.00000703,-0.00000367,-0.0000098
 4,0.00000638,-0.00000461,0.00000143,0.00000933,-0.00000067,-0.00000091
 ,0.00000270,0.00000212,-0.00000410,-0.00000111,-0.00000270,-0.00000535
 ,0.00000415,-0.00000090,-0.00000400,-0.00000413,-0.00000181,-0.0000032
 8,-0.00000063,-0.00000188,-0.06253942,0.05506771,-0.01027560,-0.004804
 13,0.02891141,-0.00714642,-0.00113428,-0.00042237,0.00018815,0.0642071
 8,-0.00002981,0.00000334,-0.00002582,0.00016380,-0.00012416,0.00009688
 ,-0.00000781,-0.00001539,0.00010342,-0.00000675,0.00001746,0.00003321,
 0.00007255,0.00007171,-0.00000862,-0.00005888,-0.00004009,-0.00003797,
 0.00001154,0.00003033,-0.00001638,-0.00001441,0.00003246,-0.00004209,0
 .00353089,-0.02127515,0.00493021,-0.00338156,-0.00072186,-0.00186468,0
 .00005870,0.00113910,-0.00001039,-0.00000407,0.00002054,-0.00001705,0.
 00000210,-0.00000119,-0.00001199,0.00000482,0.00001564,0.00001926,0.00
 000713,-0.00003607,0.00000243,0.00000935,0.00007424,-0.00002065,-0.000
 00793,-0.00000826,-0.00000580,0.00000956,0.00000492,0.00001087,-0.0000
 1750,-0.00000907,-0.00001995,-0.00009891,-0.00001283,-0.00003715,-0.00
 000216,0.00000051,-0.00000030,0.00000072,-0.00000009,0.00000023,0.0000
 0282,-0.00000448,-0.00000459,-0.00000247,0.00000551,0.00000295,0.00000
 711,-0.00000087,-0.00000179,-0.00001042,0.00000268,-0.00000049,-0.0000
 0343,0.00000070,0.00000209,0.00000108,-0.00000109,-0.00000081,0.000004
 34,-0.00000723,0.00000293,-0.00000623,0.00000645,-0.00000413,-0.000002
 50,0.00000512,-0.00000089,-0.00000083,-0.00000171,0.00000194,0.0000088
 6,-0.00000847,0.00000286,-0.00000652,0.00000947,-0.00000070,0.00000540
 ,-0.00000531,0.00000236,0.00004440,-0.00005158,-0.00007501,-0.00000645
 ,0.00000739,-0.00000135,0.00000265,-0.00000494,-0.00000457,0.00001018,
 0.00003951,0.00001418,0.00000933,-0.00000636,-0.00000169,-0.00000519,0
 .00000899,0.00000253,-0.00000584,0.00000532,0.00000326,0.00000041,-0.0
 0000397,0.00000048,0.00000185,-0.00000273,0.00000075,-0.00000074,0.000
 00221,-0.00000011,-0.00000168,0.00000224,-0.00000043,-0.00000047,0.000
 00013,-0.00000004,-0.00000041,0.00000007,0.00000041,0.00000328,-0.0000
 0205,0.00000212,0.00000010,0.00000029,0.00000030,0.00000041,-0.0000001
 6,-0.00000004,-0.00000012,0.00000020,-0.00000023,-0.00000004,0.0000000
 5,0.00000026,-0.00000032,0.00000032,-0.00000011,0.00000096,-0.00000073
 ,0.00000049,-0.00000479,0.00000211,0.00000249,-0.00000318,0.00000097,0
 .00000166,-0.00000110,-0.00000004,-0.00000032,0.00000069,-0.00000071,-
 0.00000351,-0.00001863,-0.00000398,0.00000900,0.00000267,-0.00001104,-
 0.00000183,-0.00000102,-0.00000002,-0.00000061,-0.00000163,-0.00000615
 ,0.00000354,-0.00000027,0.00000104,-0.00000044,0.00000039,-0.00000030,
 -0.00000053,-0.00000016,-0.00000187,-0.00000163,0.00000019,-0.00000128
 ,-0.00000036,-0.00003324,0.00004274,0.00006696,0.00000144,0.00000584,0
 .00000527,0.00011397,0.00000244,0.00008868,-0.00002055,0.00001463,-0.0
 0001338,-0.00001446,0.00004097,0.00000913,-0.00000073,0.00000150,-0.00
 005845,-0.00001283,-0.00000897,-0.00001025,-0.00002101,0.00001052,-0.0
 0000785,0.00000153,0.00001650,-0.00000028,-0.00000253,0.00000128,0.000
 00099,-0.00000520,-0.00000287,-0.00000332,-0.00002171,-0.00000200,0.00
 000037,0.00000703,-0.00000400,-0.00000400,0.00000216,-0.00000050,-0.00
 000175,0.05298297,-0.29592790,0.04748654,0.00121295,-0.00535870,0.0011
 7409,0.00053521,-0.00226401,0.00065362,-0.05559793,0.32187647,0.000017
 64,0.00000741,0.00005617,-0.00063864,-0.00027719,-0.00016237,0.0000973
 9,0.00001014,0.00006817,0.00000106,-0.00001071,0.00001433,0.00002784,0
 .00005382,-0.00000016,0.00011838,-0.00000028,0.00005560,-0.00001707,0.
 00000681,0.00004703,-0.00001847,0.00002275,-0.00005599,0.00249128,-0.0
 1562761,0.00105285,-0.00222111,-0.00201516,-0.00055104,0.00046899,0.00
 088184,0.00014945,0.00000307,0.00001048,-0.00003530,0.00000188,-0.0000
 0381,0.00000076,0.00000497,0.00001642,0.00001554,0.00002245,-0.0000279
 6,-0.00000801,-0.00000959,0.00007869,-0.00002534,-0.00000241,-0.000006
 05,-0.00000345,0.00001602,0.00001330,0.00001710,-0.00001052,-0.0000101
 6,-0.00001175,-0.00000311,-0.00004411,-0.00002494,0.00000254,0.0000014
 3,-0.00000130,-0.00000138,-0.00000029,0.00000015,-0.00000644,0.0000006
 8,0.00001073,0.00000450,-0.00000405,-0.00000591,-0.00000585,-0.0000002
 8,0.00000284,0.00000754,0.00000095,-0.00000362,0.00000635,0.00000221,-
 0.00000592,-0.00000183,0.00000138,0.00000194,-0.00001114,-0.00001002,-
 0.00000032,0.00000556,0.00000572,-0.00000205,0.00000998,0.00000533,-0.
 00000196,0.00000315,-0.00000257,0.00000483,-0.00000805,0.00000665,0.00
 000341,0.00000868,-0.00000603,-0.00000291,-0.00000038,-0.00001616,-0.0
 0002221,-0.00001399,0.00000608,-0.00000942,0.00000484,-0.00000279,-0.0
 0000381,0.00000064,0.00000493,-0.00001071,0.00000088,-0.00000484,0.000
 01089,-0.00000834,0.00000136,0.00001729,0.00000519,-0.00000349,-0.0000
 1188,0.00000718,-0.00000396,-0.00000858,0.00000066,0.00000382,-0.00000
 050,-0.00000505,0.00000043,0.00000329,0.00000322,-0.00000057,-0.000003
 11,0.00000193,-0.00000138,-0.00000112,0.00000067,0.00000070,-0.0000002
 0,0.00000045,-0.00000046,-0.00000035,-0.00000242,-0.00000051,0.0000030
 3,-0.00000019,-0.00000046,-0.00000043,-0.00000062,-0.00000078,0.000000
 87,-0.00000024,-0.00000059,0.00000036,0.00000050,0.00000015,-0.0000001
 6,0.00000007,-0.00000031,-0.00000065,-0.00000228,-0.00000023,-0.000000
 41,-0.00000457,0.00000233,-0.00000159,0.00000503,0.00000060,0.00000350
 ,0.00000224,0.00000134,-0.00000072,-0.00000569,-0.00000071,0.00000016,
 0.00001010,0.00000015,-0.00000246,0.00000669,0.00000226,0.00000048,-0.
 00000066,-0.00000059,0.00000087,-0.00000489,0.00000176,0.00000019,0.00
 000015,-0.00000063,0.00000104,-0.00000137,-0.00000013,0.00000093,0.000
 00039,0.00000131,0.00000281,-0.00000035,0.00000116,0.00000076,0.000006
 24,-0.00000545,0.00000720,-0.00001031,0.00004613,-0.00000955,0.0000259
 9,-0.00001677,0.00002392,-0.00002599,-0.00000366,-0.00000789,0.0000053
 8,0.00001666,0.00000462,0.00000030,0.00000578,-0.00002308,-0.00000649,
 -0.00000896,-0.00000922,-0.00001400,0.00000013,-0.00000757,0.00000033,
 0.00000016,0.00000017,-0.00000042,-0.00000158,0.00000137,-0.00000191,-
 0.00000066,-0.00000002,0.00001169,-0.00001798,0.00000651,0.00000047,0.
 00000595,0.00000088,-0.00000455,-0.00000180,-0.00000260,-0.00901713,0.
 04927296,-0.05889838,0.00190044,-0.01279099,0.00206518,-0.00692789,0.0
 3218705,-0.00401502,0.01237124,-0.05223459,0.05816572,-0.00220097,-0.0
 0543048,-0.00934541,-0.16935802,-0.04169979,-0.08423832,-0.00450876,0.
 00264225,-0.00541145,0.00132713,-0.00156791,-0.00037715,-0.00028513,0.
 00029734,0.00065582,0.00203488,-0.00000988,0.00199234,0.00015703,-0.00
 053006,0.00130993,-0.00004024,0.00053181,-0.00029941,-0.07231240,-0.00
 277861,0.01462879,0.00280609,0.00132054,-0.01108899,0.00504076,-0.0068
 1326,0.02670999,-0.00129178,0.00034946,-0.00059206,0.00079597,-0.00012
 027,0.00042377,0.00011776,0.00007594,0.00012927,0.00133397,-0.00001301
 ,0.00029359,0.00175807,-0.00312448,0.00102538,0.00056054,0.00046031,0.
 00027544,-0.00063251,-0.00015470,-0.00095954,0.00001909,0.00008581,-0.
 00019723,0.00065994,0.00120913,0.00030895,-0.00013497,-0.00011018,0.00
 005428,0.00007289,0.00002788,0.00001406,0.00021031,0.00008775,-0.00027
 380,-0.00018096,-0.00000838,0.00011474,0.00029174,0.00005896,-0.000118
 40,-0.00039250,-0.00011168,0.00012069,-0.00027577,-0.00012443,0.000106
 11,0.00005810,-0.00002493,-0.00000047,0.00056442,0.00076422,0.00000902
 ,-0.00017364,-0.00049033,0.00005517,-0.00053924,-0.00044226,-0.0000251
 6,-0.00011356,0.00030523,-0.00020866,0.00054623,-0.00036884,0.00036065
 ,-0.00048075,0.00025952,-0.00014358,0.00012230,0.00099608,0.00061108,0
 .00081744,-0.00066270,0.00073566,-0.00038753,-0.00005740,-0.00027840,0
 .00010432,0.00014765,0.00061648,-0.00033263,0.00090313,-0.00026343,0.0
 0067804,-0.00012942,-0.00063305,-0.00041763,0.00003682,0.00026998,-0.0
 0053544,0.00010742,0.00030546,0.00002133,-0.00018141,0.00013113,0.0004
 6669,-0.00003336,-0.00001257,-0.00025950,0.00000545,0.00006093,-0.0002
 4513,0.00008789,-0.00007239,-0.00003827,-0.00004997,0.00001259,-0.0000
 1030,0.00001822,0.00000366,0.00009716,0.00005277,-0.00009313,0.0000077
 4,0.00000582,0.00000262,0.00003700,0.00004462,-0.00003369,0.00001181,0
 .00005357,-0.00001565,-0.00002873,-0.00002206,0.00001734,0.00000762,0.
 00003325,0.00002840,0.00015081,0.00004748,0.00004516,0.00001990,-0.000
 11021,-0.00000804,-0.00040816,-0.00005701,-0.00015037,-0.00012944,-0.0
 0009799,0.00002254,0.00021534,0.00011913,0.00003133,-0.00040817,-0.000
 09510,0.00023762,-0.00011553,0.00001143,-0.00016606,0.00002803,-0.0000
 0146,-0.00001028,0.00022762,0.00003753,0.00000919,-0.00000349,0.000029
 47,-0.00004075,0.00005229,0.00003069,-0.00004283,0.00005175,0.00002808
 ,-0.00007583,0.00004489,-0.00003298,0.00000739,-0.00217809,0.00159527,
 0.00091299,0.00005797,-0.00097190,-0.00000545,-0.00109520,0.00047867,-
 0.00040011,0.00100315,-0.00018332,0.00025995,-0.00039343,-0.00064236,-
 0.00027610,0.00003719,0.00003353,0.00019110,0.00009199,0.00035217,0.00
 025946,0.00062875,-0.00015149,0.00024437,0.00005494,-0.00015317,-0.000
 02408,-0.00001229,-0.00001174,-0.00004135,0.00003056,-0.00004669,-0.00
 002320,-0.00049628,0.00043809,-0.00022145,0.00004763,-0.00008778,-0.00
 006375,0.00023140,0.00009646,0.00014711,0.00382255,0.00429243,-0.03180
 769,0.00237819,0.00172391,0.00102676,-0.00430582,-0.00414821,-0.003698
 96,0.00085337,0.00060890,0.00132312,0.23396760,0.00289023,0.00297590,0
 .00166690,-0.02674012,-0.04384494,-0.01430583,-0.02260156,0.00060326,-
 0.01717050,0.00018738,0.00336021,0.00069835,0.00045394,0.00246441,0.00
 092542,0.00538229,0.00215479,0.00441110,-0.00118574,-0.00050724,0.0015
 4227,0.00029969,0.00114645,-0.00127289,-0.00449477,-0.06260151,0.02242
 231,-0.00319957,0.00353504,0.03377702,-0.00154207,0.00375146,-0.006027
 02,-0.00001077,0.00028088,-0.00068567,0.00000624,0.00010463,0.00001020
 ,-0.00009356,0.00025144,0.00044318,0.00009397,-0.00022461,-0.00003311,
 0.00270312,-0.00707082,0.00223123,-0.00017912,-0.00008909,-0.00003781,
 -0.00170797,-0.00067065,-0.00193708,0.00003539,0.00005086,-0.00045088,
 -0.00012178,-0.00027689,-0.00018517,-0.00000365,0.00001343,-0.00000256
 ,-0.00000039,-0.00000655,-0.00000517,0.00000690,-0.00003984,-0.0000245
 4,-0.00000285,0.00004821,0.00002243,0.00002540,-0.00000908,-0.00000408
 ,-0.00003325,0.00003268,0.00000534,-0.00000092,0.00002015,0.00002188,0
 .00000923,-0.00000781,-0.00002034,-0.00002355,-0.00026408,0.00002864,-
 0.00009818,0.00019312,-0.00002933,0.00012388,0.00017128,0.00002410,0.0
 0001730,-0.00012554,0.00005701,-0.00004729,0.00002526,-0.00005905,0.00
 003000,0.00001860,0.00002249,-0.00004490,-0.00026891,-0.00014321,-0.00
 012401,0.00034971,-0.00003697,0.00007475,0.00006558,0.00003687,-0.0000
 4748,-0.00003387,-0.00003258,-0.00008388,-0.00006883,-0.00008192,-0.00
 004568,-0.00001994,0.00005062,0.00002824,0.00004206,-0.00001196,0.0000
 2980,0.00001665,-0.00001512,-0.00000009,-0.00000051,-0.00001213,-0.000
 03818,-0.00001262,0.00000144,0.00002237,0.00001185,-0.00000453,0.00001
 708,0.00000336,0.00000712,0.00000028,0.00000432,-0.00000283,-0.0000042
 5,0.00000058,0.00000362,0.00002661,-0.00002150,0.00000440,0.00000104,0
 .00000325,0.00000436,-0.00000092,-0.00000351,0.00000110,-0.00000100,-0
 .00000406,-0.00000067,0.00000583,0.00000457,-0.00000271,-0.00000761,-0
 .00000285,-0.00000717,-0.00001783,-0.00001445,-0.00000016,-0.00001661,
 0.00000997,0.00001787,0.00008472,0.00000396,0.00002734,0.00001907,0.00
 003053,-0.00001103,0.00001857,-0.00011376,-0.00002072,0.00002188,0.000
 02952,-0.00002694,0.00003066,-0.00004085,0.00001282,0.00000126,0.00000
 262,-0.00000078,-0.00001768,-0.00006412,0.00002005,-0.00000084,0.00000
 236,0.00000311,-0.00000542,-0.00000685,0.00000230,-0.00000575,-0.00001
 230,-0.00000097,-0.00000260,-0.00000436,-0.00000343,-0.00027897,-0.000
 16718,-0.00003457,-0.00001861,-0.00007366,0.00009547,0.00024598,-0.000
 24901,0.00027612,-0.00009289,-0.00004058,-0.00012852,-0.00003399,0.000
 36114,0.00025949,0.00001551,-0.00003943,-0.00018607,-0.00001161,-0.000
 06842,0.00000963,-0.00018644,0.00013540,0.00000317,-0.00000464,0.00009
 407,-0.00006610,0.00001123,0.00001559,-0.00000283,0.00000373,0.0000292
 7,-0.00002618,-0.00002752,0.00005441,0.00004262,-0.00001778,-0.0000325
 6,-0.00000321,-0.00001244,-0.00001205,-0.00003166,0.00023019,0.0060817
 7,-0.02024671,0.00056943,0.00035342,0.00059584,-0.00318717,-0.00144199
 ,-0.00199267,0.00174164,0.00241628,0.00047812,0.05095909,0.08723251,0.
 00052260,0.00032447,-0.00139469,-0.07964343,-0.02459234,-0.11256931,-0
 .01084810,-0.00017027,-0.00450499,0.00047584,0.00218583,-0.00001646,-0
 .00032437,-0.00151522,0.00015290,-0.02808204,-0.00653467,-0.02036300,0
 .00425298,0.00344164,-0.00745658,-0.00015157,-0.00068441,0.00195443,0.
 02667381,0.02456578,-0.16944401,-0.00069984,0.00979762,-0.03080471,-0.
 00044981,0.00349939,-0.03410708,-0.00106213,0.00005086,0.00194036,-0.0
 0019856,0.00013086,-0.00018531,0.00005479,-0.00030194,-0.00024792,-0.0
 0023944,-0.00021842,-0.00041984,0.00134228,-0.00385192,0.00184453,-0.0
 0029236,0.00006294,-0.00005650,-0.00128359,-0.00044965,-0.00094579,0.0
 0029308,0.00041524,0.00028909,0.00154617,0.00070014,0.00160028,-0.0000
 6839,-0.00005423,0.00004367,0.00003908,0.00000778,-0.00000716,0.000164
 67,0.00002616,-0.00027108,-0.00011468,0.00006136,0.00014194,0.00014018
 ,0.00002766,-0.00007432,-0.00017401,-0.00004888,0.00012514,-0.00017010
 ,-0.00007194,0.00015138,0.00004957,-0.00003635,-0.00005400,0.00032861,
 0.00030257,-0.00001406,-0.00017781,-0.00017580,0.00008816,-0.00028950,
 -0.00012618,0.00007944,-0.00014427,0.00007113,-0.00016529,0.00017355,-
 0.00017644,-0.00013863,-0.00019718,0.00013017,0.00006449,-0.00005740,0
 .00034683,0.00072601,0.00031983,0.00022626,0.00049922,-0.00010315,0.00
 002496,0.00008081,0.00000956,-0.00003050,0.00027220,-0.00019932,0.0000
 9013,-0.00008672,0.00018611,0.00002642,-0.00037431,-0.00010436,-0.0000
 1007,0.00023363,-0.00015683,0.00003212,0.00016002,-0.00001177,-0.00006
 961,0.00002529,0.00016886,-0.00000191,-0.00006130,-0.00010133,-0.00000
 299,0.00006412,-0.00007207,0.00002924,0.00000635,-0.00001802,-0.000026
 52,0.00000490,-0.00001257,0.00001420,0.00000640,0.00006995,0.00002930,
 -0.00011253,0.00000663,0.00001116,0.00001019,0.00001692,0.00002719,-0.
 00002554,0.00000936,0.00002150,-0.00000903,-0.00001434,-0.00000615,0.0
 0000338,-0.00000035,0.00000790,0.00001869,0.00005974,0.00001091,0.0000
 1256,0.00016820,-0.00008009,0.00004345,-0.00013342,-0.00002232,-0.0001
 2016,-0.00006747,-0.00003946,0.00002057,0.00017958,-0.00001474,-0.0000
 5165,-0.00018103,0.00001006,0.00005012,-0.00018840,0.00013039,-0.00012
 169,0.00002048,0.00001021,-0.00000873,0.00008335,-0.00002034,-0.000021
 91,0.00000089,0.00000965,-0.00001665,0.00002840,0.00000679,-0.00002111
 ,0.00000526,-0.00000127,-0.00004845,0.00001647,-0.00001920,-0.00000832
 ,-0.00014636,-0.00040376,-0.00031682,0.00026012,-0.00125454,0.00017219
 ,-0.00148934,0.00009839,-0.00069173,0.00082380,-0.00012262,0.00026972,
 -0.00023203,-0.00042431,0.00007878,0.00003973,-0.00018724,0.00019219,0
 .00021398,0.00028064,0.00029680,0.00046507,-0.00000546,0.00026614,0.00
 000942,-0.00007682,-0.00010609,0.00002721,0.00003677,-0.00002909,0.000
 07892,0.00003998,-0.00001867,-0.00019671,0.00055660,-0.00013058,-0.000
 12811,-0.00013645,0.00000610,0.00009545,0.00006574,0.00006990,-0.00341
 213,0.00218202,-0.03931844,0.00014872,0.00082965,0.00229425,-0.0048974
 9,-0.00393381,-0.00163378,0.00132909,-0.00017980,0.00213103,0.09563685
 ,-0.00487794,0.41008321\\-0.00000101,0.00000254,0.00000220,-0.00000012
 ,0.00000655,0.00000098,0.00000140,0.00000560,-0.00000102,0.00000178,0.
 00000692,-0.00000211,0.00000176,0.00000370,-0.00000299,-0.00000105,0.0
 0000836,0.00000226,-0.00000025,0.00000878,0.00000225,-0.00000222,0.000
 00848,0.00000434,-0.00000039,0.00000136,0.00000126,-0.00000048,0.00000
 245,0.00000061,-0.00000200,0.00000187,0.00000284,-0.00000027,0.0000109
 1,0.00000207,-0.00000052,0.00001266,0.00000303,0.00000071,0.00001112,0
 .00000012,-0.00000033,0.00001015,0.00000230,0.00000216,0.00000660,-0.0
 0000294,0.00000177,0.00000487,-0.00000229,0.00000319,0.00000654,-0.000
 00457,0.00000170,0.00000850,-0.00000214,-0.00000034,-0.00000274,0.0000
 0070,0.00000218,-0.00000655,-0.00000483,0.00000213,-0.00000454,-0.0000
 0424,0.00000065,-0.00000376,-0.00000185,-0.00000027,-0.00000520,-0.000
 00035,0.00000215,-0.00000563,-0.00000474,0.00000207,-0.00000345,-0.000
 00434,0.00000061,-0.00000113,-0.00000104,0.00000127,0.00000106,-0.0000
 0257,0.00000176,0.00000166,-0.00000314,0.00000289,0.00000148,-0.000004
 90,0.00000076,0.00000267,-0.00000061,-0.00000038,0.00000318,0.00000102
 ,-0.00000139,0.00000042,0.00000284,-0.00000210,0.00000024,0.00000404,-
 0.00000078,0.00000504,0.00000274,-0.00000102,0.00000517,0.00000248,-0.
 00000110,-0.00000120,0.00000200,-0.00000245,-0.00000294,0.00000399,-0.
 00000289,-0.00000256,0.00000449,-0.00000214,-0.00000618,0.00000277,-0.
 00000154,-0.00000666,0.00000175,-0.00000258,-0.00000687,0.00000357,-0.
 00000319,-0.00000656,0.00000453,-0.00000293,-0.00000844,0.00000384,-0.
 00000256,-0.00001041,0.00000298,-0.00000336,-0.00000760,0.00000484,0.0
 0000318,-0.00000620,-0.00000671,0.00000153,-0.00000727,-0.00000384,0.0
 0000270,-0.00000246,-0.00000491,0.00000290,-0.00000279,-0.00000544,0.0
 0000124,-0.00000783,-0.00000365,0.00000215,-0.00000600,-0.00000482,0.0
 0000235,0.00000096,-0.00000427,0.00000139,0.00000289,-0.00000165,-0.00
 000054,-0.00000075,0.00000043,-0.00000057,0.00000695,0.00000209,-0.000
 00210,0.00000493,0.00000443,-0.00000049,0.00000362,0.00000145,0.000001
 19,0.00000270,-0.00000157,-0.00000388,-0.00000327,0.00000644,-0.000002
 28,-0.00000286,0.00000390,-0.00000332,-0.00000266,0.00000545,-0.000000
 66,-0.00000097,0.00000067,-0.00000416,-0.00000630,0.00000645,-0.000002
 65,-0.00000444,0.00000402,-0.00000226,-0.00000898,0.00000275,-0.000003
 21,-0.00000898,0.00000438,-0.00000276,0.00000170,0.00000590,0.00000107
 ,-0.00000181,-0.00000184,0.00000175,-0.00000138,-0.00000315,0.00000132
 ,-0.00000189,-0.00000288,0.00000302,-0.00000090,-0.00000558,0.00000135
 ,-0.00000128,-0.00000240,0.00000262,-0.00000170,-0.00000509,0.00000367
 ,-0.00000107,-0.00000647,0.00000364,-0.00000044,-0.00000661,0.00000298
 ,-0.00000174,-0.00000589,0.00000455,-0.00000067,-0.00000827,0.00000079
 ,-0.00000249,-0.00000158,-0.00000039,-0.00000399,-0.00000023,0.0000011
 8,-0.00000348,-0.00000263,-0.00000153,0.00000284,0.00000284,-0.0000019
 9,0.00000439,0.00000329,-0.00000164,0.00000024,0.00000317,-0.00000289,
 0.00000230,0.00000544,-0.00000052,0.00000459,0.00000417\\\@


 The cat could very well be man's best friend
 but would never stoop to admitting it.
                               -- Doug Larson
 Job cpu time:       1 days  1 hours 23 minutes  6.6 seconds.
 File lengths (MBytes):  RWF=   5995 Int=      0 D2E=      0 Chk=     46 Scr=      1
 Normal termination of Gaussian 09 at Wed Jul 26 15:37:12 2023.
