 Entering Gaussian System, Link 0=g09
 Input=au-1to3-ts-2-af-c-term-level3-freq-se.com
 Output=au-1to3-ts-2-af-c-term-level3-freq-se.log
 Initial command:
 /opt/versatushpc/softwares/gaussian-09d01//g09/l1.exe "/tmp/Gau-16357.inp" -scrdir="/tmp/"
 Entering Link 1 = /opt/versatushpc/softwares/gaussian-09d01//g09/l1.exe PID=     16358.
  
 Copyright (c) 1988,1990,1992,1993,1995,1998,2003,2009,2013,
            Gaussian, Inc.  All Rights Reserved.
  
 This is part of the Gaussian(R) 09 program.  It is based on
 the Gaussian(R) 03 system (copyright 2003, Gaussian, Inc.),
 the Gaussian(R) 98 system (copyright 1998, Gaussian, Inc.),
 the Gaussian(R) 94 system (copyright 1995, Gaussian, Inc.),
 the Gaussian 92(TM) system (copyright 1992, Gaussian, Inc.),
 the Gaussian 90(TM) system (copyright 1990, Gaussian, Inc.),
 the Gaussian 88(TM) system (copyright 1988, Gaussian, Inc.),
 the Gaussian 86(TM) system (copyright 1986, Carnegie Mellon
 University), and the Gaussian 82(TM) system (copyright 1983,
 Carnegie Mellon University). Gaussian is a federally registered
 trademark of Gaussian, Inc.
  
 This software contains proprietary and confidential information,
 including trade secrets, belonging to Gaussian, Inc.
  
 This software is provided under written license and may be
 used, copied, transmitted, or stored only in accord with that
 written license.
  
 The following legend is applicable only to US Government
 contracts under FAR:
  
                    RESTRICTED RIGHTS LEGEND
  
 Use, reproduction and disclosure by the US Government is
 subject to restrictions as set forth in subparagraphs (a)
 and (c) of the Commercial Computer Software - Restricted
 Rights clause in FAR 52.227-19.
  
 Gaussian, Inc.
 340 Quinnipiac St., Bldg. 40, Wallingford CT 06492
  
  
 ---------------------------------------------------------------
 Warning -- This program may not be used in any manner that
 competes with the business of Gaussian, Inc. or will provide
 assistance to any competitor of Gaussian, Inc.  The licensee
 of this program is prohibited from giving any competitor of
 Gaussian, Inc. access to this program.  By using this program,
 the user acknowledges that Gaussian, Inc. is engaged in the
 business of creating and licensing software in the field of
 computational chemistry and represents and warrants to the
 licensee that it is not a competitor of Gaussian, Inc. and that
 it will not use this program in any manner prohibited above.
 ---------------------------------------------------------------
  

 Cite this work as:
 Gaussian 09, Revision D.01,
 M. J. Frisch, G. W. Trucks, H. B. Schlegel, G. E. Scuseria, 
 M. A. Robb, J. R. Cheeseman, G. Scalmani, V. Barone, B. Mennucci, 
 G. A. Petersson, H. Nakatsuji, M. Caricato, X. Li, H. P. Hratchian, 
 A. F. Izmaylov, J. Bloino, G. Zheng, J. L. Sonnenberg, M. Hada, 
 M. Ehara, K. Toyota, R. Fukuda, J. Hasegawa, M. Ishida, T. Nakajima, 
 Y. Honda, O. Kitao, H. Nakai, T. Vreven, J. A. Montgomery, Jr., 
 J. E. Peralta, F. Ogliaro, M. Bearpark, J. J. Heyd, E. Brothers, 
 K. N. Kudin, V. N. Staroverov, T. Keith, R. Kobayashi, J. Normand, 
 K. Raghavachari, A. Rendell, J. C. Burant, S. S. Iyengar, J. Tomasi, 
 M. Cossi, N. Rega, J. M. Millam, M. Klene, J. E. Knox, J. B. Cross, 
 V. Bakken, C. Adamo, J. Jaramillo, R. Gomperts, R. E. Stratmann, 
 O. Yazyev, A. J. Austin, R. Cammi, C. Pomelli, J. W. Ochterski, 
 R. L. Martin, K. Morokuma, V. G. Zakrzewski, G. A. Voth, 
 P. Salvador, J. J. Dannenberg, S. Dapprich, A. D. Daniels, 
 O. Farkas, J. B. Foresman, J. V. Ortiz, J. Cioslowski, 
 and D. J. Fox, Gaussian, Inc., Wallingford CT, 2013.
 
 ******************************************
 Gaussian 09:  ES64L-G09RevD.01 24-Apr-2013
                24-Oct-2022 
 ******************************************
 %mem=50000MB
 %nprocshared=15
 Will use up to   15 processors via shared memory.
 %chk=au-1to3-ts-2-af-c-term-level3-se.chk
 ----------------------------------------------------------------
 # opt=(ts,readfc,noeigentest) freq=noraman b3lyp/gen pseudo=read
 ----------------------------------------------------------------
 1/5=1,10=3,11=1,14=-1,18=20,26=3,38=1/1,3;
 2/9=110,12=2,17=6,18=5,40=1/2;
 3/5=7,11=2,16=1,17=8,25=1,30=1,71=1,74=-5/1,2,3;
 4//1;
 5/5=2,38=5/2;
 6/7=2,8=2,9=2,10=2,28=1/1;
 7//1,2,3,16;
 1/5=1,11=1,14=-1,18=20,26=3/3(2);
 2/9=110/2;
 99//99;
 2/9=110/2;
 3/5=7,6=1,11=2,16=1,17=8,25=1,30=1,71=1,74=-5,82=7/1,2,3;
 4/5=5,16=3,69=1/1;
 5/5=2,38=5/2;
 7//1,2,3,16;
 1/5=1,11=1,14=-1,18=20,26=3/3(-5);
 2/9=110/2;
 6/7=2,8=2,9=2,10=2,19=2,28=1/1;
 99/9=1/99;
 -------------------
 Title Card Required
 -------------------
 Symbolic Z-matrix:
 Charge =  0 Multiplicity = 1
 Au                    0.21943  -2.0423   -0.22718 
 P                     0.51946  -4.0926   -1.35041 
 C                    -0.32993  -5.5139   -0.51236 
 H                    -0.07608  -6.43617  -1.04971 
 H                    -1.40692  -5.34986  -0.64289 
 C                     2.30742  -4.5647   -1.41138 
 H                     2.38504  -5.58312  -1.8132 
 H                     2.64209  -4.58587  -0.3685 
 C                    -0.09945  -4.13406  -3.10369 
 H                     0.36233  -3.27856  -3.60962 
 H                    -1.17216  -3.91066  -3.05131 
 C                     0.00861  -5.64835   0.97905 
 H                     1.0746   -5.83826   1.14014 
 H                    -0.25553  -4.74019   1.53032 
 H                    -0.54717  -6.48553   1.41538 
 C                     0.14951  -5.42635  -3.89397 
 H                    -0.24316  -5.32274  -4.91171 
 H                     1.21767  -5.65365  -3.97471 
 H                    -0.34721  -6.28842  -3.43709 
 C                     3.18151  -3.58082  -2.20068 
 H                     3.17045  -2.59186  -1.73279 
 H                     4.21895  -3.93188  -2.20427 
 H                     2.86093  -3.48814  -3.24499 
 S                     2.14382  -1.98144   1.40416 
 O                     3.6509   -0.494    -0.20574 
 O                     2.95156   0.46271   3.26473 
 O                     4.14063  -0.92085   4.62594 
 O                     5.48993   1.73373   2.7088 
 O                     4.54979   3.75039   3.18678 
 O                     5.68123   2.54389  -0.07258 
 O                     7.83859   1.8549    0.14034 
 O                     5.95787  -0.22227  -2.00772 
 O                     7.09295   1.38237  -3.1483 
 C                     2.8685   -0.37611   0.99425 
 C                     3.77253   0.14711   2.13286 
 C                     4.49307   1.43618   1.71726 
 C                     5.18371   1.26616   0.3672 
 C                     4.16975   0.74971  -0.66362 
 C                     3.21419  -0.16642   4.44491 
 C                     2.17785   0.21792   5.4734 
 C                     5.40553   2.91688   3.37692 
 C                     6.53221   3.01974   4.37691 
 C                     7.03205   2.70293  -0.17065 
 C                     7.36471   4.04788  -0.76341 
 C                     4.75194   0.55982  -2.05736 
 C                     7.07494   0.31999  -2.56373 
 C                     8.2765   -0.55388  -2.31308 
 H                     2.05951   0.35612   0.81778 
 H                     4.50171  -0.61535   2.41486 
 H                     3.78466   2.26861   1.67762 
 H                     6.01642   0.56672   0.45145 
 H                     3.35051   1.48524  -0.75921 
 H                     2.48668  -0.14472   6.45467 
 H                     1.21716  -0.23422   5.20274 
 H                     2.03747   1.30273   5.49296 
 H                     7.4957    2.92625   3.8653 
 H                     6.46658   2.19669   5.09627 
 H                     6.47332   3.97679   4.89643 
 H                     7.32685   3.94943  -1.85482 
 H                     8.37764   4.33302  -0.47422 
 H                     6.64434   4.81007  -0.45761 
 H                     4.03082   0.01456  -2.67326 
 H                     4.96959   1.52574  -2.5155 
 H                     9.01918  -0.38636  -3.09526 
 H                     8.00128  -1.60937  -2.25687 
 H                     8.70756  -0.25456  -1.35061 
 N                    -10.41619  -0.30153   2.44034 
 C                    -9.20121  -0.10246   1.64749 
 C                    -7.93801  -0.29878   2.50608 
 O                    -7.89658   0.15013   3.64608 
 C                    -9.22514   1.34062   1.09609 
 O                    -8.11032   1.65121   0.27595 
 N                    -6.85907  -0.9929    2.00484 
 C                    -6.70919  -1.63823   0.71045 
 C                    -6.49761  -0.68406  -0.47675 
 O                    -7.3436   -0.63012  -1.36824 
 N                    -5.3611    0.07922  -0.55736 
 C                    -4.4441    0.48619   0.51615 
 C                    -3.59647   1.68452   0.06272 
 O                    -3.3267    2.59979   0.82339 
 C                    -3.47486  -0.6332    0.98784 
 S                    -2.40907  -1.39213  -0.32695 
 N                    -3.1258    1.60242  -1.23065 
 C                    -1.8302    2.20408  -1.55757 
 C                    -0.72343   1.13607  -1.53893 
 C                    -1.91746   2.84361  -2.95814 
 O                    -1.58227   2.21747  -3.9577 
 N                    -2.41375   4.10891  -3.0187 
 C                    -2.88731   4.93612  -1.92785 
 C                    -3.65618   6.10999  -2.50794 
 O                    -3.79845   6.3266   -3.69095 
 O                    -4.14965   6.89362  -1.5331 
 H                    -10.18026   1.48003   0.5726 
 H                    -9.19329   2.0386    1.93894 
 H                    -8.18232   1.11959  -0.53567 
 H                    -9.22601  -0.79169   0.79694 
 H                    -10.26606   0.15265   3.34244 
 H                    -10.53392  -1.29219   2.6481 
 H                    -7.59618  -2.22277   0.45463 
 H                    -5.87255  -2.33976   0.78017 
 H                    -6.10483  -1.07446   2.67632 
 H                    -4.03734  -1.47248   1.40657 
 H                    -2.84382  -0.23651   1.78696 
 H                    -5.00696   0.83171   1.38891 
 H                    -5.44705   0.74105  -1.32236 
 H                     0.2518    1.59898  -1.72181 
 H                    -0.88099   0.40217  -2.33182 
 H                    -1.64059   2.9544   -0.78684 
 H                    -3.27576   0.70844  -1.68989 
 H                    -2.067     5.34513  -1.32005 
 H                    -3.54175   4.39094  -1.23844 
 H                    -2.54943   4.49048  -3.95026 
 H                    -4.6224    7.62745  -1.97026 
 Se                   -0.59101   0.28621   0.09273 
 

 GradGradGradGradGradGradGradGradGradGradGradGradGradGradGradGradGradGrad
 Berny optimization.
 Initialization pass.
 No redundant coordinates on chk file, so ReadFC converted to ReadCartesianFC.
 Cartesian force constants read from checkpoint file:
 "au-1to3-ts-2-af-c-term-level3-se.chk"
 FormGI is forming the generalized inverse of G from B-inverse, IUseBI=4.
 GSVD:  received Info=                   1 from GESDD.
                           ----------------------------
                           !    Initial Parameters    !
                           ! (Angstroms and Degrees)  !
 --------------------------                            --------------------------
 ! Name  Definition              Value          Derivative Info.                !
 --------------------------------------------------------------------------------
 ! R1    R(1,2)                  2.357          D2E/DX2 =    0.0985             !
 ! R2    R(1,24)                 2.5235         D2E/DX2 =    0.0671             !
 ! R3    R(1,82)                 2.7095         D2E/DX2 =    0.0177             !
 ! R4    R(1,114)                2.4862         D2E/DX2 =    0.0752             !
 ! R5    R(2,3)                  1.8558         D2E/DX2 =    0.1872             !
 ! R6    R(2,6)                  1.8502         D2E/DX2 =    0.19               !
 ! R7    R(2,9)                  1.8598         D2E/DX2 =    0.1862             !
 ! R8    R(3,4)                  1.0972         D2E/DX2 =    0.3338             !
 ! R9    R(3,5)                  1.0972         D2E/DX2 =    0.3346             !
 ! R10   R(3,12)                 1.5353         D2E/DX2 =    0.2815             !
 ! R11   R(6,7)                  1.0976         D2E/DX2 =    0.3328             !
 ! R12   R(6,8)                  1.0955         D2E/DX2 =    0.3398             !
 ! R13   R(6,20)                 1.5346         D2E/DX2 =    0.2832             !
 ! R14   R(9,10)                 1.0959         D2E/DX2 =    0.3377             !
 ! R15   R(9,11)                 1.097          D2E/DX2 =    0.3354             !
 ! R16   R(9,16)                 1.5351         D2E/DX2 =    0.278              !
 ! R17   R(12,13)                1.0947         D2E/DX2 =    0.343              !
 ! R18   R(12,14)                1.0947         D2E/DX2 =    0.3429             !
 ! R19   R(12,15)                1.0955         D2E/DX2 =    0.3401             !
 ! R20   R(16,17)                1.0958         D2E/DX2 =    0.3396             !
 ! R21   R(16,18)                1.0951         D2E/DX2 =    0.3425             !
 ! R22   R(16,19)                1.0948         D2E/DX2 =    0.3429             !
 ! R23   R(20,21)                1.0941         D2E/DX2 =    0.3464             !
 ! R24   R(20,22)                1.0952         D2E/DX2 =    0.341              !
 ! R25   R(20,23)                1.0963         D2E/DX2 =    0.3385             !
 ! R26   R(24,34)                1.8084         D2E/DX2 =    0.2071             !
 ! R27   R(25,34)                1.4374         D2E/DX2 =    0.2444             !
 ! R28   R(25,38)                1.4233         D2E/DX2 =    0.2757             !
 ! R29   R(26,35)                1.4334         D2E/DX2 =    0.3158             !
 ! R30   R(26,39)                1.3629         D2E/DX2 =    0.3807             !
 ! R31   R(27,39)                1.2084         D2E/DX2 =    0.8716             !
 ! R32   R(28,36)                1.4372         D2E/DX2 =    0.3096             !
 ! R33   R(28,41)                1.3614         D2E/DX2 =    0.3838             !
 ! R34   R(29,41)                1.2096         D2E/DX2 =    0.8668             !
 ! R35   R(30,37)                1.44           D2E/DX2 =    0.3081             !
 ! R36   R(30,43)                1.3637         D2E/DX2 =    0.378              !
 ! R37   R(31,43)                1.2109         D2E/DX2 =    0.8577             !
 ! R38   R(32,45)                1.4382         D2E/DX2 =    0.3182             !
 ! R39   R(32,46)                1.3605         D2E/DX2 =    0.387              !
 ! R40   R(33,46)                1.2127         D2E/DX2 =    0.8501             !
 ! R41   R(34,35)                1.5451         D2E/DX2 =    0.2239             !
 ! R42   R(34,48)                1.1053         D2E/DX2 =    0.3051             !
 ! R43   R(35,36)                1.5341         D2E/DX2 =    0.2384             !
 ! R44   R(35,49)                1.092          D2E/DX2 =    0.3475             !
 ! R45   R(36,37)                1.526          D2E/DX2 =    0.2479             !
 ! R46   R(36,50)                1.0938         D2E/DX2 =    0.3428             !
 ! R47   R(37,38)                1.5354         D2E/DX2 =    0.244              !
 ! R48   R(37,51)                1.0907         D2E/DX2 =    0.3514             !
 ! R49   R(38,45)                1.5223         D2E/DX2 =    0.2918             !
 ! R50   R(38,52)                1.1051         D2E/DX2 =    0.3125             !
 ! R51   R(39,40)                1.5098         D2E/DX2 =    0.2911             !
 ! R52   R(40,53)                1.0908         D2E/DX2 =    0.354              !
 ! R53   R(40,54)                1.0957         D2E/DX2 =    0.3421             !
 ! R54   R(40,55)                1.094          D2E/DX2 =    0.3457             !
 ! R55   R(41,42)                1.5099         D2E/DX2 =    0.291              !
 ! R56   R(42,56)                1.0949         D2E/DX2 =    0.344              !
 ! R57   R(42,57)                1.0951         D2E/DX2 =    0.3436             !
 ! R58   R(42,58)                1.0906         D2E/DX2 =    0.3545             !
 ! R59   R(43,44)                1.507          D2E/DX2 =    0.2941             !
 ! R60   R(44,59)                1.0965         D2E/DX2 =    0.3413             !
 ! R61   R(44,60)                1.0913         D2E/DX2 =    0.3526             !
 ! R62   R(44,61)                1.0924         D2E/DX2 =    0.3494             !
 ! R63   R(45,62)                1.0939         D2E/DX2 =    0.3421             !
 ! R64   R(45,63)                1.091          D2E/DX2 =    0.3516             !
 ! R65   R(46,47)                1.5067         D2E/DX2 =    0.2948             !
 ! R66   R(47,64)                1.0915         D2E/DX2 =    0.3519             !
 ! R67   R(47,65)                1.0922         D2E/DX2 =    0.3498             !
 ! R68   R(47,66)                1.0962         D2E/DX2 =    0.3422             !
 ! R69   R(67,68)                1.4644         D2E/DX2 =    0.3339             !
 ! R70   R(67,97)                1.0211         D2E/DX2 =    0.4356             !
 ! R71   R(67,98)                1.019          D2E/DX2 =    0.4387             !
 ! R72   R(68,69)                1.5399         D2E/DX2 =    0.248              !
 ! R73   R(68,71)                1.545          D2E/DX2 =    0.2605             !
 ! R74   R(68,96)                1.095          D2E/DX2 =    0.3383             !
 ! R75   R(69,70)                1.2259         D2E/DX2 =    0.8007             !
 ! R76   R(69,73)                1.3774         D2E/DX2 =    0.4292             !
 ! R77   R(71,72)                1.4184         D2E/DX2 =    0.358              !
 ! R78   R(71,93)                1.0981         D2E/DX2 =    0.3311             !
 ! R79   R(71,94)                1.0948         D2E/DX2 =    0.3413             !
 ! R80   R(72,95)                0.9729         D2E/DX2 =    0.4898             !
 ! R81   R(73,74)                1.4541         D2E/DX2 =    0.3491             !
 ! R82   R(73,101)               1.0131         D2E/DX2 =    0.4579             !
 ! R83   R(74,75)                1.5377         D2E/DX2 =    0.2528             !
 ! R84   R(74,99)                1.0926         D2E/DX2 =    0.3449             !
 ! R85   R(74,100)               1.0941         D2E/DX2 =    0.3419             !
 ! R86   R(75,76)                1.2302         D2E/DX2 =    0.778              !
 ! R87   R(75,77)                1.3714         D2E/DX2 =    0.4361             !
 ! R88   R(77,78)                1.4693         D2E/DX2 =    0.3183             !
 ! R89   R(77,105)               1.0152         D2E/DX2 =    0.4514             !
 ! R90   R(78,79)                1.5363         D2E/DX2 =    0.2319             !
 ! R91   R(78,81)                1.554          D2E/DX2 =    0.2269             !
 ! R92   R(78,104)               1.0945         D2E/DX2 =    0.3394             !
 ! R93   R(79,80)                1.2203         D2E/DX2 =    0.8195             !
 ! R94   R(79,83)                1.3788         D2E/DX2 =    0.3833             !
 ! R95   R(81,82)                1.8549         D2E/DX2 =    0.158              !
 ! R96   R(81,102)               1.0937         D2E/DX2 =    0.3412             !
 ! R97   R(81,103)               1.0928         D2E/DX2 =    0.3458             !
 ! R98   R(82,114)               2.5096         D2E/DX2 =    0.0134             !
 ! R99   R(83,84)                1.4654         D2E/DX2 =    0.2885             !
 ! R100  R(83,109)               1.0162         D2E/DX2 =    0.4458             !
 ! R101  R(84,85)                1.5382         D2E/DX2 =    0.2524             !
 ! R102  R(84,86)                1.5421         D2E/DX2 =    0.2541             !
 ! R103  R(84,108)               1.0922         D2E/DX2 =    0.3458             !
 ! R104  R(85,106)               1.0949         D2E/DX2 =    0.3389             !
 ! R105  R(85,107)               1.0918         D2E/DX2 =    0.3474             !
 ! R106  R(85,114)               1.8445         D2E/DX2 =    0.2643             !
 ! R107  R(86,87)                1.2262         D2E/DX2 =    0.8004             !
 ! R108  R(86,88)                1.3605         D2E/DX2 =    0.4666             !
 ! R109  R(88,89)                1.4486         D2E/DX2 =    0.356              !
 ! R110  R(88,112)               1.0158         D2E/DX2 =    0.453              !
 ! R111  R(89,90)                1.5184         D2E/DX2 =    0.2894             !
 ! R112  R(89,110)               1.0998         D2E/DX2 =    0.3272             !
 ! R113  R(89,111)               1.0958         D2E/DX2 =    0.3393             !
 ! R114  R(90,91)                1.2111         D2E/DX2 =    0.8697             !
 ! R115  R(90,92)                1.3446         D2E/DX2 =    0.4293             !
 ! R116  R(92,113)               0.9763         D2E/DX2 =    0.4883             !
 ! A1    A(2,1,24)             103.4132         D2E/DX2 =    0.0316             !
 ! A2    A(2,1,82)             108.3413         D2E/DX2 =    0.0112             !
 ! A3    A(2,1,114)            156.5675         D2E/DX2 =    0.0185             !
 ! A4    A(24,1,82)            139.2688         D2E/DX2 =    0.0163             !
 ! A5    A(24,1,114)            98.2107         D2E/DX2 =    0.0238             !
 ! A6    A(1,2,3)              113.1263         D2E/DX2 =    0.0183             !
 ! A7    A(1,2,6)              111.1415         D2E/DX2 =    0.0247             !
 ! A8    A(1,2,9)              115.2325         D2E/DX2 =    0.0192             !
 ! A9    A(3,2,6)              105.1744         D2E/DX2 =    0.0218             !
 ! A10   A(3,2,9)              104.8528         D2E/DX2 =    0.0246             !
 ! A11   A(6,2,9)              106.5486         D2E/DX2 =    0.0253             !
 ! A12   A(2,3,4)              108.4654         D2E/DX2 =    0.0454             !
 ! A13   A(2,3,5)              106.3227         D2E/DX2 =    0.0427             !
 ! A14   A(2,3,12)             113.8808         D2E/DX2 =    0.1207             !
 ! A15   A(4,3,5)              107.1284         D2E/DX2 =    0.0174             !
 ! A16   A(4,3,12)             110.5576         D2E/DX2 =    0.0461             !
 ! A17   A(5,3,12)             110.188          D2E/DX2 =    0.0444             !
 ! A18   A(2,6,7)              108.4913         D2E/DX2 =    0.0469             !
 ! A19   A(2,6,8)              105.5919         D2E/DX2 =    0.0428             !
 ! A20   A(2,6,20)             113.8141         D2E/DX2 =    0.1255             !
 ! A21   A(7,6,8)              107.998          D2E/DX2 =    0.0176             !
 ! A22   A(7,6,20)             111.4882         D2E/DX2 =    0.0469             !
 ! A23   A(8,6,20)             109.1487         D2E/DX2 =    0.0441             !
 ! A24   A(2,9,10)             106.1155         D2E/DX2 =    0.0479             !
 ! A25   A(2,9,11)             106.0136         D2E/DX2 =    0.0485             !
 ! A26   A(2,9,16)             116.7517         D2E/DX2 =    0.1331             !
 ! A27   A(10,9,11)            105.9685         D2E/DX2 =    0.0172             !
 ! A28   A(10,9,16)            110.5579         D2E/DX2 =    0.0474             !
 ! A29   A(11,9,16)            110.7696         D2E/DX2 =    0.047              !
 ! A30   A(3,12,13)            111.8934         D2E/DX2 =    0.1083             !
 ! A31   A(3,12,14)            111.3053         D2E/DX2 =    0.1082             !
 ! A32   A(3,12,15)            109.997          D2E/DX2 =    0.1049             !
 ! A33   A(13,12,14)           107.7444         D2E/DX2 =    0.0547             !
 ! A34   A(13,12,15)           107.6278         D2E/DX2 =    0.0533             !
 ! A35   A(14,12,15)           108.1182         D2E/DX2 =    0.0527             !
 ! A36   A(9,16,17)            109.9035         D2E/DX2 =    0.1035             !
 ! A37   A(9,16,18)            111.7703         D2E/DX2 =    0.1063             !
 ! A38   A(9,16,19)            111.9902         D2E/DX2 =    0.1063             !
 ! A39   A(17,16,18)           107.4991         D2E/DX2 =    0.0526             !
 ! A40   A(17,16,19)           107.4254         D2E/DX2 =    0.0528             !
 ! A41   A(18,16,19)           108.0519         D2E/DX2 =    0.055              !
 ! A42   A(6,20,21)            110.7199         D2E/DX2 =    0.1139             !
 ! A43   A(6,20,22)            109.6154         D2E/DX2 =    0.1068             !
 ! A44   A(6,20,23)            112.1837         D2E/DX2 =    0.1096             !
 ! A45   A(21,20,22)           107.4996         D2E/DX2 =    0.0523             !
 ! A46   A(21,20,23)           109.1465         D2E/DX2 =    0.056              !
 ! A47   A(22,20,23)           107.515          D2E/DX2 =    0.0536             !
 ! A48   A(1,24,34)            100.3967         D2E/DX2 =    0.2327             !
 ! A49   A(34,25,38)           113.2877         D2E/DX2 =    0.0609             !
 ! A50   A(35,26,39)           118.1478         D2E/DX2 =    0.3235             !
 ! A51   A(36,28,41)           118.3941         D2E/DX2 =    0.324              !
 ! A52   A(37,30,43)           117.8852         D2E/DX2 =    0.3504             !
 ! A53   A(45,32,46)           117.2333         D2E/DX2 =    0.3729             !
 ! A54   A(24,34,25)           109.5458         D2E/DX2 =    0.0645             !
 ! A55   A(24,34,35)           111.5936         D2E/DX2 =    0.0827             !
 ! A56   A(24,34,48)           109.3276         D2E/DX2 =    0.0305             !
 ! A57   A(25,34,35)           108.9349         D2E/DX2 =    0.0501             !
 ! A58   A(25,34,48)           108.629          D2E/DX2 =    0.0278             !
 ! A59   A(35,34,48)           108.7562         D2E/DX2 =    0.0399             !
 ! A60   A(26,35,34)           108.7436         D2E/DX2 =    0.0536             !
 ! A61   A(26,35,36)           107.3315         D2E/DX2 =    0.0561             !
 ! A62   A(26,35,49)           109.4046         D2E/DX2 =    0.0215             !
 ! A63   A(34,35,36)           111.0817         D2E/DX2 =    0.0493             !
 ! A64   A(34,35,49)           110.1535         D2E/DX2 =    0.0253             !
 ! A65   A(36,35,49)           110.06           D2E/DX2 =    0.0265             !
 ! A66   A(28,36,35)           108.2312         D2E/DX2 =    0.0531             !
 ! A67   A(28,36,37)           108.6347         D2E/DX2 =    0.0525             !
 ! A68   A(28,36,50)           108.4621         D2E/DX2 =    0.0217             !
 ! A69   A(35,36,37)           111.0156         D2E/DX2 =    0.0474             !
 ! A70   A(35,36,50)           110.1885         D2E/DX2 =    0.0247             !
 ! A71   A(37,36,50)           110.2342         D2E/DX2 =    0.0254             !
 ! A72   A(30,37,36)           109.1304         D2E/DX2 =    0.0571             !
 ! A73   A(30,37,38)           108.7592         D2E/DX2 =    0.0558             !
 ! A74   A(30,37,51)           109.1968         D2E/DX2 =    0.0226             !
 ! A75   A(36,37,38)           109.4248         D2E/DX2 =    0.048              !
 ! A76   A(36,37,51)           110.4041         D2E/DX2 =    0.0269             !
 ! A77   A(38,37,51)           109.8966         D2E/DX2 =    0.0249             !
 ! A78   A(25,38,37)           108.5836         D2E/DX2 =    0.0404             !
 ! A79   A(25,38,45)           108.9626         D2E/DX2 =    0.0744             !
 ! A80   A(25,38,52)           109.8272         D2E/DX2 =    0.0203             !
 ! A81   A(37,38,45)           113.8327         D2E/DX2 =    0.1309             !
 ! A82   A(37,38,52)           108.8899         D2E/DX2 =    0.0344             !
 ! A83   A(45,38,52)           106.698          D2E/DX2 =    0.0337             !
 ! A84   A(26,39,27)           124.4468         D2E/DX2 =    0.2187             !
 ! A85   A(26,39,40)           109.8827         D2E/DX2 =    0.1738             !
 ! A86   A(27,39,40)           125.6701         D2E/DX2 =    0.157              !
 ! A87   A(39,40,53)           109.5027         D2E/DX2 =    0.1074             !
 ! A88   A(39,40,54)           109.1781         D2E/DX2 =    0.1022             !
 ! A89   A(39,40,55)           110.6506         D2E/DX2 =    0.1045             !
 ! A90   A(53,40,54)           109.4672         D2E/DX2 =    0.0549             !
 ! A91   A(53,40,55)           110.4816         D2E/DX2 =    0.0563             !
 ! A92   A(54,40,55)           107.5224         D2E/DX2 =    0.0549             !
 ! A93   A(28,41,29)           124.4416         D2E/DX2 =    0.2219             !
 ! A94   A(28,41,42)           109.7528         D2E/DX2 =    0.1732             !
 ! A95   A(29,41,42)           125.8055         D2E/DX2 =    0.1574             !
 ! A96   A(41,42,56)           109.9594         D2E/DX2 =    0.1041             !
 ! A97   A(41,42,57)           109.8238         D2E/DX2 =    0.1043             !
 ! A98   A(41,42,58)           109.5713         D2E/DX2 =    0.1072             !
 ! A99   A(56,42,57)           107.1882         D2E/DX2 =    0.0551             !
 ! A100  A(56,42,58)           110.1843         D2E/DX2 =    0.0558             !
 ! A101  A(57,42,58)           110.0843         D2E/DX2 =    0.0557             !
 ! A102  A(30,43,31)           124.0292         D2E/DX2 =    0.2211             !
 ! A103  A(30,43,44)           110.5514         D2E/DX2 =    0.1737             !
 ! A104  A(31,43,44)           125.381          D2E/DX2 =    0.1562             !
 ! A105  A(43,44,59)           107.6843         D2E/DX2 =    0.1031             !
 ! A106  A(43,44,60)           109.5028         D2E/DX2 =    0.1083             !
 ! A107  A(43,44,61)           111.5319         D2E/DX2 =    0.1072             !
 ! A108  A(59,44,60)           108.6192         D2E/DX2 =    0.054              !
 ! A109  A(59,44,61)           108.5725         D2E/DX2 =    0.0549             !
 ! A110  A(60,44,61)           110.8292         D2E/DX2 =    0.0573             !
 ! A111  A(32,45,38)           110.9097         D2E/DX2 =    0.2087             !
 ! A112  A(32,45,62)           107.5253         D2E/DX2 =    0.0682             !
 ! A113  A(32,45,63)           109.1879         D2E/DX2 =    0.0684             !
 ! A114  A(38,45,62)           108.998          D2E/DX2 =    0.0794             !
 ! A115  A(38,45,63)           110.5064         D2E/DX2 =    0.0716             !
 ! A116  A(62,45,63)           109.6576         D2E/DX2 =    0.0294             !
 ! A117  A(32,46,33)           123.9411         D2E/DX2 =    0.2275             !
 ! A118  A(32,46,47)           110.8315         D2E/DX2 =    0.1752             !
 ! A119  A(33,46,47)           125.1993         D2E/DX2 =    0.1578             !
 ! A120  A(46,47,64)           109.5348         D2E/DX2 =    0.1082             !
 ! A121  A(46,47,65)           111.5976         D2E/DX2 =    0.1076             !
 ! A122  A(46,47,66)           107.5338         D2E/DX2 =    0.1041             !
 ! A123  A(64,47,65)           110.8938         D2E/DX2 =    0.0574             !
 ! A124  A(64,47,66)           108.6445         D2E/DX2 =    0.0539             !
 ! A125  A(65,47,66)           108.5273         D2E/DX2 =    0.055              !
 ! A126  A(68,67,97)           107.2099         D2E/DX2 =    0.1608             !
 ! A127  A(68,67,98)           109.7788         D2E/DX2 =    0.1573             !
 ! A128  A(97,67,98)           105.6215         D2E/DX2 =    0.0563             !
 ! A129  A(67,68,69)           111.1855         D2E/DX2 =    0.0691             !
 ! A130  A(67,68,71)           107.8992         D2E/DX2 =    0.0911             !
 ! A131  A(67,68,96)           108.4331         D2E/DX2 =    0.0278             !
 ! A132  A(69,68,71)           109.3149         D2E/DX2 =    0.0763             !
 ! A133  A(69,68,96)           111.8025         D2E/DX2 =    0.0281             !
 ! A134  A(71,68,96)           108.0789         D2E/DX2 =    0.0336             !
 ! A135  A(68,69,70)           119.9686         D2E/DX2 =    0.1944             !
 ! A136  A(68,69,73)           120.2589         D2E/DX2 =    0.2637             !
 ! A137  A(70,69,73)           119.767          D2E/DX2 =    0.224              !
 ! A138  A(68,71,72)           113.4967         D2E/DX2 =    0.1891             !
 ! A139  A(68,71,93)           107.5895         D2E/DX2 =    0.0747             !
 ! A140  A(68,71,94)           108.6794         D2E/DX2 =    0.0803             !
 ! A141  A(72,71,93)           112.3458         D2E/DX2 =    0.0697             !
 ! A142  A(72,71,94)           106.4198         D2E/DX2 =    0.0655             !
 ! A143  A(93,71,94)           108.1433         D2E/DX2 =    0.0276             !
 ! A144  A(71,72,95)           107.7308         D2E/DX2 =    0.2115             !
 ! A145  A(69,73,74)           128.928          D2E/DX2 =    0.2217             !
 ! A146  A(69,73,101)          112.4916         D2E/DX2 =    0.1183             !
 ! A147  A(74,73,101)          118.5237         D2E/DX2 =    0.1215             !
 ! A148  A(73,74,75)           115.2169         D2E/DX2 =    0.2047             !
 ! A149  A(73,74,99)           111.233          D2E/DX2 =    0.0708             !
 ! A150  A(73,74,100)          107.8589         D2E/DX2 =    0.0744             !
 ! A151  A(75,74,99)           105.2415         D2E/DX2 =    0.067              !
 ! A152  A(75,74,100)          109.9901         D2E/DX2 =    0.0665             !
 ! A153  A(99,74,100)          107.0179         D2E/DX2 =    0.0243             !
 ! A154  A(74,75,76)           119.4763         D2E/DX2 =    0.1839             !
 ! A155  A(74,75,77)           120.315          D2E/DX2 =    0.2137             !
 ! A156  A(76,75,77)           120.1927         D2E/DX2 =    0.2065             !
 ! A157  A(75,77,78)           128.9333         D2E/DX2 =    0.1844             !
 ! A158  A(75,77,105)          109.6927         D2E/DX2 =    0.1029             !
 ! A159  A(78,77,105)          115.0122         D2E/DX2 =    0.0998             !
 ! A160  A(77,78,79)           110.1668         D2E/DX2 =    0.0577             !
 ! A161  A(77,78,81)           114.299          D2E/DX2 =    0.0698             !
 ! A162  A(77,78,104)          110.4309         D2E/DX2 =    0.0284             !
 ! A163  A(79,78,81)           107.8988         D2E/DX2 =    0.0411             !
 ! A164  A(79,78,104)          105.8344         D2E/DX2 =    0.0215             !
 ! A165  A(81,78,104)          107.8253         D2E/DX2 =    0.0277             !
 ! A166  A(78,79,80)           121.5368         D2E/DX2 =    0.1481             !
 ! A167  A(78,79,83)           114.7569         D2E/DX2 =    0.0887             !
 ! A168  A(80,79,83)           123.637          D2E/DX2 =    0.1681             !
 ! A169  A(78,81,82)           115.9732         D2E/DX2 =    0.0565             !
 ! A170  A(78,81,102)          110.3782         D2E/DX2 =    0.0454             !
 ! A171  A(78,81,103)          108.7019         D2E/DX2 =    0.0469             !
 ! A172  A(82,81,102)          104.6501         D2E/DX2 =    0.0403             !
 ! A173  A(82,81,103)          109.5765         D2E/DX2 =    0.0396             !
 ! A174  A(102,81,103)         107.1927         D2E/DX2 =    0.0182             !
 ! A175  A(1,82,81)            129.0121         D2E/DX2 =    0.0362             !
 ! A176  A(81,82,114)           91.3805         D2E/DX2 =    0.0383             !
 ! A177  A(79,83,84)           119.1192         D2E/DX2 =    0.0915             !
 ! A178  A(79,83,109)          115.2106         D2E/DX2 =    0.0679             !
 ! A179  A(84,83,109)          113.0074         D2E/DX2 =    0.0741             !
 ! A180  A(83,84,85)           110.3882         D2E/DX2 =    0.0453             !
 ! A181  A(83,84,86)           108.8355         D2E/DX2 =    0.0475             !
 ! A182  A(83,84,108)          106.1469         D2E/DX2 =    0.0241             !
 ! A183  A(85,84,86)           109.8567         D2E/DX2 =    0.067              !
 ! A184  A(85,84,108)          110.0916         D2E/DX2 =    0.0276             !
 ! A185  A(86,84,108)          111.4574         D2E/DX2 =    0.0241             !
 ! A186  A(84,85,106)          110.2014         D2E/DX2 =    0.0442             !
 ! A187  A(84,85,107)          110.7371         D2E/DX2 =    0.046              !
 ! A188  A(84,85,114)          112.4764         D2E/DX2 =    0.0599             !
 ! A189  A(106,85,107)         106.9431         D2E/DX2 =    0.0186             !
 ! A190  A(106,85,114)         106.1777         D2E/DX2 =    0.0374             !
 ! A191  A(107,85,114)         110.0628         D2E/DX2 =    0.0363             !
 ! A192  A(84,86,87)           120.8712         D2E/DX2 =    0.1832             !
 ! A193  A(84,86,88)           116.5356         D2E/DX2 =    0.2034             !
 ! A194  A(87,86,88)           122.5709         D2E/DX2 =    0.196              !
 ! A195  A(86,88,89)           128.0833         D2E/DX2 =    0.1402             !
 ! A196  A(86,88,112)          116.0338         D2E/DX2 =    0.0941             !
 ! A197  A(89,88,112)          115.6217         D2E/DX2 =    0.1014             !
 ! A198  A(88,89,90)           108.6211         D2E/DX2 =    0.1924             !
 ! A199  A(88,89,110)          112.6239         D2E/DX2 =    0.0636             !
 ! A200  A(88,89,111)          112.6376         D2E/DX2 =    0.0662             !
 ! A201  A(90,89,110)          107.5351         D2E/DX2 =    0.062              !
 ! A202  A(90,89,111)          108.8182         D2E/DX2 =    0.062              !
 ! A203  A(110,89,111)         106.4256         D2E/DX2 =    0.026              !
 ! A204  A(89,90,91)           124.8159         D2E/DX2 =    0.1705             !
 ! A205  A(89,90,92)           111.0646         D2E/DX2 =    0.1611             !
 ! A206  A(91,90,92)           124.1152         D2E/DX2 =    0.1978             !
 ! A207  A(90,92,113)          106.9269         D2E/DX2 =    0.1779             !
 ! A208  A(1,114,85)           109.9448         D2E/DX2 =    0.0455             !
 ! A209  A(82,114,85)           96.2118         D2E/DX2 =    0.0366             !
 ! D1    D(24,1,2,3)            89.0051         D2E/DX2 =    0.0074             !
 ! D2    D(24,1,2,6)           -29.0501         D2E/DX2 =    0.009              !
 ! D3    D(24,1,2,9)          -150.371          D2E/DX2 =    0.0079             !
 ! D4    D(82,1,2,3)           -65.1243         D2E/DX2 =    0.0082             !
 ! D5    D(82,1,2,6)           176.8205         D2E/DX2 =    0.0091             !
 ! D6    D(82,1,2,9)            55.4996         D2E/DX2 =    0.0081             !
 ! D7    D(114,1,2,3)         -114.1521         D2E/DX2 =    0.0072             !
 ! D8    D(114,1,2,6)          127.7927         D2E/DX2 =    0.0077             !
 ! D9    D(114,1,2,9)            6.4718         D2E/DX2 =    0.007              !
 ! D10   D(2,1,24,34)          126.665          D2E/DX2 =    0.0105             !
 ! D11   D(82,1,24,34)         -92.7355         D2E/DX2 =    0.0142             !
 ! D12   D(114,1,24,34)        -44.2439         D2E/DX2 =    0.0113             !
 ! D13   D(2,1,82,81)          140.4592         D2E/DX2 =    0.013              !
 ! D14   D(24,1,82,81)           1.0361         D2E/DX2 =    0.0106             !
 ! D15   D(2,1,114,85)         -29.7334         D2E/DX2 =    0.0092             !
 ! D16   D(24,1,114,85)        127.5303         D2E/DX2 =    0.016              !
 ! D17   D(1,2,3,4)           -175.5548         D2E/DX2 =    0.0107             !
 ! D18   D(1,2,3,5)             69.5267         D2E/DX2 =    0.0107             !
 ! D19   D(1,2,3,12)           -52.0016         D2E/DX2 =    0.0103             !
 ! D20   D(6,2,3,4)            -54.0757         D2E/DX2 =    0.0139             !
 ! D21   D(6,2,3,5)           -168.9943         D2E/DX2 =    0.0142             !
 ! D22   D(6,2,3,12)            69.4774         D2E/DX2 =    0.0136             !
 ! D23   D(9,2,3,4)             58.0874         D2E/DX2 =    0.0127             !
 ! D24   D(9,2,3,5)            -56.8312         D2E/DX2 =    0.0126             !
 ! D25   D(9,2,3,12)          -178.3594         D2E/DX2 =    0.0122             !
 ! D26   D(1,2,6,7)            172.1387         D2E/DX2 =    0.0102             !
 ! D27   D(1,2,6,8)             56.5712         D2E/DX2 =    0.01               !
 ! D28   D(1,2,6,20)           -63.1253         D2E/DX2 =    0.011              !
 ! D29   D(3,2,6,7)             49.3738         D2E/DX2 =    0.0125             !
 ! D30   D(3,2,6,8)            -66.1938         D2E/DX2 =    0.0128             !
 ! D31   D(3,2,6,20)           174.1098         D2E/DX2 =    0.013              !
 ! D32   D(9,2,6,7)            -61.5829         D2E/DX2 =    0.0125             !
 ! D33   D(9,2,6,8)           -177.1504         D2E/DX2 =    0.0127             !
 ! D34   D(9,2,6,20)            63.1531         D2E/DX2 =    0.0132             !
 ! D35   D(1,2,9,10)            52.9392         D2E/DX2 =    0.0102             !
 ! D36   D(1,2,9,11)           -59.4469         D2E/DX2 =    0.0102             !
 ! D37   D(1,2,9,16)           176.648          D2E/DX2 =    0.0098             !
 ! D38   D(3,2,9,10)           177.9809         D2E/DX2 =    0.0117             !
 ! D39   D(3,2,9,11)            65.5948         D2E/DX2 =    0.0113             !
 ! D40   D(3,2,9,16)           -58.3103         D2E/DX2 =    0.0112             !
 ! D41   D(6,2,9,10)           -70.8386         D2E/DX2 =    0.0126             !
 ! D42   D(6,2,9,11)           176.7753         D2E/DX2 =    0.0129             !
 ! D43   D(6,2,9,16)            52.8702         D2E/DX2 =    0.0124             !
 ! D44   D(2,3,12,13)          -62.0757         D2E/DX2 =    0.0126             !
 ! D45   D(2,3,12,14)           58.5399         D2E/DX2 =    0.0128             !
 ! D46   D(2,3,12,15)          178.35           D2E/DX2 =    0.0131             !
 ! D47   D(4,3,12,13)           60.335          D2E/DX2 =    0.0145             !
 ! D48   D(4,3,12,14)         -179.0494         D2E/DX2 =    0.0142             !
 ! D49   D(4,3,12,15)          -59.2393         D2E/DX2 =    0.0142             !
 ! D50   D(5,3,12,13)          178.566          D2E/DX2 =    0.0142             !
 ! D51   D(5,3,12,14)          -60.8184         D2E/DX2 =    0.0148             !
 ! D52   D(5,3,12,15)           58.9917         D2E/DX2 =    0.0143             !
 ! D53   D(2,6,20,21)           62.3316         D2E/DX2 =    0.0141             !
 ! D54   D(2,6,20,22)         -179.2368         D2E/DX2 =    0.0134             !
 ! D55   D(2,6,20,23)          -59.8727         D2E/DX2 =    0.0129             !
 ! D56   D(7,6,20,21)         -174.5534         D2E/DX2 =    0.0148             !
 ! D57   D(7,6,20,22)          -56.1218         D2E/DX2 =    0.014              !
 ! D58   D(7,6,20,23)           63.2422         D2E/DX2 =    0.0145             !
 ! D59   D(8,6,20,21)          -55.3304         D2E/DX2 =    0.0153             !
 ! D60   D(8,6,20,22)           63.1011         D2E/DX2 =    0.0146             !
 ! D61   D(8,6,20,23)         -177.5348         D2E/DX2 =    0.0147             !
 ! D62   D(2,9,16,17)         -179.0493         D2E/DX2 =    0.013              !
 ! D63   D(2,9,16,18)          -59.7777         D2E/DX2 =    0.0128             !
 ! D64   D(2,9,16,19)           61.6306         D2E/DX2 =    0.0127             !
 ! D65   D(10,9,16,17)         -57.6476         D2E/DX2 =    0.0142             !
 ! D66   D(10,9,16,18)          61.6241         D2E/DX2 =    0.0145             !
 ! D67   D(10,9,16,19)        -176.9676         D2E/DX2 =    0.0143             !
 ! D68   D(11,9,16,17)          59.5124         D2E/DX2 =    0.0143             !
 ! D69   D(11,9,16,18)         178.7841         D2E/DX2 =    0.0144             !
 ! D70   D(11,9,16,19)         -59.8076         D2E/DX2 =    0.0145             !
 ! D71   D(1,24,34,25)         -78.3643         D2E/DX2 =    0.0213             !
 ! D72   D(1,24,34,35)         160.9157         D2E/DX2 =    0.0151             !
 ! D73   D(1,24,34,48)          40.5654         D2E/DX2 =    0.0213             !
 ! D74   D(38,25,34,24)        175.1222         D2E/DX2 =    0.0383             !
 ! D75   D(38,25,34,35)        -62.5571         D2E/DX2 =    0.0183             !
 ! D76   D(38,25,34,48)         55.7616         D2E/DX2 =    0.0244             !
 ! D77   D(34,25,38,37)         65.9652         D2E/DX2 =    0.0227             !
 ! D78   D(34,25,38,45)       -169.5436         D2E/DX2 =    0.0553             !
 ! D79   D(34,25,38,52)        -53.002          D2E/DX2 =    0.0217             !
 ! D80   D(39,26,35,34)        122.0377         D2E/DX2 =    0.0131             !
 ! D81   D(39,26,35,36)       -117.7103         D2E/DX2 =    0.0132             !
 ! D82   D(39,26,35,49)          1.6883         D2E/DX2 =    0.0116             !
 ! D83   D(35,26,39,27)          4.278          D2E/DX2 =    0.0138             !
 ! D84   D(35,26,39,40)       -175.5121         D2E/DX2 =    0.016              !
 ! D85   D(41,28,36,35)       -120.1299         D2E/DX2 =    0.012              !
 ! D86   D(41,28,36,37)        119.237          D2E/DX2 =    0.0119             !
 ! D87   D(41,28,36,50)         -0.5898         D2E/DX2 =    0.0111             !
 ! D88   D(36,28,41,29)         -0.6732         D2E/DX2 =    0.0146             !
 ! D89   D(36,28,41,42)        179.3052         D2E/DX2 =    0.0163             !
 ! D90   D(43,30,37,36)        114.4533         D2E/DX2 =    0.0225             !
 ! D91   D(43,30,37,38)       -126.2345         D2E/DX2 =    0.025              !
 ! D92   D(43,30,37,51)         -6.3118         D2E/DX2 =    0.0137             !
 ! D93   D(37,30,43,31)         -3.1063         D2E/DX2 =    0.0191             !
 ! D94   D(37,30,43,44)        174.7427         D2E/DX2 =    0.0187             !
 ! D95   D(46,32,45,38)       -124.8902         D2E/DX2 =    0.0323             !
 ! D96   D(46,32,45,62)        116.0256         D2E/DX2 =    0.0288             !
 ! D97   D(46,32,45,63)         -2.8831         D2E/DX2 =    0.024              !
 ! D98   D(45,32,46,33)         -3.747          D2E/DX2 =    0.0213             !
 ! D99   D(45,32,46,47)        174.4104         D2E/DX2 =    0.023              !
 ! D100  D(24,34,35,26)        -67.8975         D2E/DX2 =    0.024              !
 ! D101  D(24,34,35,36)        174.2005         D2E/DX2 =    0.0216             !
 ! D102  D(24,34,35,49)         51.9876         D2E/DX2 =    0.0174             !
 ! D103  D(25,34,35,26)        171.0263         D2E/DX2 =    0.0262             !
 ! D104  D(25,34,35,36)         53.1242         D2E/DX2 =    0.0188             !
 ! D105  D(25,34,35,49)        -69.0887         D2E/DX2 =    0.0197             !
 ! D106  D(48,34,35,26)         52.7875         D2E/DX2 =    0.02               !
 ! D107  D(48,34,35,36)        -65.1146         D2E/DX2 =    0.0176             !
 ! D108  D(48,34,35,49)        172.6725         D2E/DX2 =    0.0155             !
 ! D109  D(26,35,36,28)         71.5926         D2E/DX2 =    0.0234             !
 ! D110  D(26,35,36,37)       -169.268          D2E/DX2 =    0.0222             !
 ! D111  D(26,35,36,50)        -46.8549         D2E/DX2 =    0.0186             !
 ! D112  D(34,35,36,28)       -169.6523         D2E/DX2 =    0.0223             !
 ! D113  D(34,35,36,37)        -50.5129         D2E/DX2 =    0.0154             !
 ! D114  D(34,35,36,50)         71.9002         D2E/DX2 =    0.0166             !
 ! D115  D(49,35,36,28)        -47.3851         D2E/DX2 =    0.0185             !
 ! D116  D(49,35,36,37)         71.7542         D2E/DX2 =    0.0164             !
 ! D117  D(49,35,36,50)       -165.8327         D2E/DX2 =    0.0147             !
 ! D118  D(28,36,37,30)        -69.2362         D2E/DX2 =    0.0242             !
 ! D119  D(28,36,37,38)        171.8654         D2E/DX2 =    0.0224             !
 ! D120  D(28,36,37,51)         50.7878         D2E/DX2 =    0.0185             !
 ! D121  D(35,36,37,30)        171.8669         D2E/DX2 =    0.0244             !
 ! D122  D(35,36,37,38)         52.9684         D2E/DX2 =    0.0147             !
 ! D123  D(35,36,37,51)        -68.1091         D2E/DX2 =    0.0162             !
 ! D124  D(50,36,37,30)         49.4803         D2E/DX2 =    0.0193             !
 ! D125  D(50,36,37,38)        -69.4181         D2E/DX2 =    0.0163             !
 ! D126  D(50,36,37,51)        169.5043         D2E/DX2 =    0.0147             !
 ! D127  D(30,37,38,25)       -178.2886         D2E/DX2 =    0.0292             !
 ! D128  D(30,37,38,45)         60.1573         D2E/DX2 =    0.0277             !
 ! D129  D(30,37,38,52)        -58.7336         D2E/DX2 =    0.0213             !
 ! D130  D(36,37,38,25)        -59.1604         D2E/DX2 =    0.0201             !
 ! D131  D(36,37,38,45)        179.2855         D2E/DX2 =    0.0209             !
 ! D132  D(36,37,38,52)         60.3946         D2E/DX2 =    0.0167             !
 ! D133  D(51,37,38,25)         62.2242         D2E/DX2 =    0.0201             !
 ! D134  D(51,37,38,45)        -59.3298         D2E/DX2 =    0.0165             !
 ! D135  D(51,37,38,52)       -178.2208         D2E/DX2 =    0.015              !
 ! D136  D(25,38,45,32)        -70.3834         D2E/DX2 =    0.0192             !
 ! D137  D(25,38,45,62)         47.811          D2E/DX2 =    0.0168             !
 ! D138  D(25,38,45,63)        168.3826         D2E/DX2 =    0.0195             !
 ! D139  D(37,38,45,32)         50.96           D2E/DX2 =    0.0216             !
 ! D140  D(37,38,45,62)        169.1544         D2E/DX2 =    0.0158             !
 ! D141  D(37,38,45,63)        -70.274          D2E/DX2 =    0.0152             !
 ! D142  D(52,38,45,32)        171.0938         D2E/DX2 =    0.0227             !
 ! D143  D(52,38,45,62)        -70.7118         D2E/DX2 =    0.0166             !
 ! D144  D(52,38,45,63)         49.8598         D2E/DX2 =    0.0159             !
 ! D145  D(26,39,40,53)       -170.1857         D2E/DX2 =    0.0178             !
 ! D146  D(26,39,40,54)         69.9789         D2E/DX2 =    0.0176             !
 ! D147  D(26,39,40,55)        -48.1685         D2E/DX2 =    0.0184             !
 ! D148  D(27,39,40,53)         10.0274         D2E/DX2 =    0.0189             !
 ! D149  D(27,39,40,54)       -109.8081         D2E/DX2 =    0.0159             !
 ! D150  D(27,39,40,55)        132.0445         D2E/DX2 =    0.0159             !
 ! D151  D(28,41,42,56)         57.6434         D2E/DX2 =    0.018              !
 ! D152  D(28,41,42,57)        -60.0745         D2E/DX2 =    0.018              !
 ! D153  D(28,41,42,58)        178.8893         D2E/DX2 =    0.0179             !
 ! D154  D(29,41,42,56)       -122.3786         D2E/DX2 =    0.0159             !
 ! D155  D(29,41,42,57)        119.9035         D2E/DX2 =    0.0159             !
 ! D156  D(29,41,42,58)         -1.1327         D2E/DX2 =    0.019              !
 ! D157  D(30,43,44,59)        -84.8721         D2E/DX2 =    0.0174             !
 ! D158  D(30,43,44,60)        157.1953         D2E/DX2 =    0.0171             !
 ! D159  D(30,43,44,61)         34.1523         D2E/DX2 =    0.0189             !
 ! D160  D(31,43,44,59)         92.9415         D2E/DX2 =    0.0166             !
 ! D161  D(31,43,44,60)        -24.9912         D2E/DX2 =    0.0189             !
 ! D162  D(31,43,44,61)       -148.0342         D2E/DX2 =    0.0164             !
 ! D163  D(32,46,47,64)        154.3082         D2E/DX2 =    0.0172             !
 ! D164  D(32,46,47,65)         31.1158         D2E/DX2 =    0.0188             !
 ! D165  D(32,46,47,66)        -87.7971         D2E/DX2 =    0.0174             !
 ! D166  D(33,46,47,64)        -27.5625         D2E/DX2 =    0.0189             !
 ! D167  D(33,46,47,65)       -150.7549         D2E/DX2 =    0.0167             !
 ! D168  D(33,46,47,66)         90.3322         D2E/DX2 =    0.0169             !
 ! D169  D(97,67,68,69)         41.8532         D2E/DX2 =    0.0182             !
 ! D170  D(97,67,68,71)        -78.0118         D2E/DX2 =    0.0185             !
 ! D171  D(97,67,68,96)        165.1551         D2E/DX2 =    0.0144             !
 ! D172  D(98,67,68,69)        -72.4119         D2E/DX2 =    0.0163             !
 ! D173  D(98,67,68,71)        167.7231         D2E/DX2 =    0.0175             !
 ! D174  D(98,67,68,96)         50.89           D2E/DX2 =    0.0128             !
 ! D175  D(67,68,69,70)        -41.3696         D2E/DX2 =    0.0202             !
 ! D176  D(67,68,69,73)        137.7694         D2E/DX2 =    0.0218             !
 ! D177  D(71,68,69,70)         77.651          D2E/DX2 =    0.0329             !
 ! D178  D(71,68,69,73)       -103.2101         D2E/DX2 =    0.0467             !
 ! D179  D(96,68,69,70)       -162.7208         D2E/DX2 =    0.0144             !
 ! D180  D(96,68,69,73)         16.4182         D2E/DX2 =    0.0165             !
 ! D181  D(67,68,71,72)       -178.4705         D2E/DX2 =    0.0229             !
 ! D182  D(67,68,71,93)        -53.5299         D2E/DX2 =    0.0195             !
 ! D183  D(67,68,71,94)         63.3427         D2E/DX2 =    0.0204             !
 ! D184  D(69,68,71,72)         60.4906         D2E/DX2 =    0.0262             !
 ! D185  D(69,68,71,93)       -174.5688         D2E/DX2 =    0.0227             !
 ! D186  D(69,68,71,94)        -57.6962         D2E/DX2 =    0.0212             !
 ! D187  D(96,68,71,72)        -61.4076         D2E/DX2 =    0.0182             !
 ! D188  D(96,68,71,93)         63.533          D2E/DX2 =    0.0154             !
 ! D189  D(96,68,71,94)       -179.5944         D2E/DX2 =    0.0165             !
 ! D190  D(68,69,73,74)         -1.1499         D2E/DX2 =    0.0156             !
 ! D191  D(68,69,73,101)      -178.329          D2E/DX2 =    0.0139             !
 ! D192  D(70,69,73,74)        177.9908         D2E/DX2 =    0.0246             !
 ! D193  D(70,69,73,101)         0.8117         D2E/DX2 =    0.0151             !
 ! D194  D(68,71,72,95)         67.5967         D2E/DX2 =    0.0222             !
 ! D195  D(93,71,72,95)        -54.7459         D2E/DX2 =    0.0254             !
 ! D196  D(94,71,72,95)       -172.9185         D2E/DX2 =    0.0282             !
 ! D197  D(69,73,74,75)         74.1969         D2E/DX2 =    0.0225             !
 ! D198  D(69,73,74,99)        -45.4541         D2E/DX2 =    0.0138             !
 ! D199  D(69,73,74,100)      -162.5233         D2E/DX2 =    0.0175             !
 ! D200  D(101,73,74,75)      -108.7697         D2E/DX2 =    0.0158             !
 ! D201  D(101,73,74,99)       131.5794         D2E/DX2 =    0.0175             !
 ! D202  D(101,73,74,100)       14.5102         D2E/DX2 =    0.0117             !
 ! D203  D(73,74,75,76)       -115.9871         D2E/DX2 =    0.021              !
 ! D204  D(73,74,75,77)         65.4644         D2E/DX2 =    0.0206             !
 ! D205  D(99,74,75,76)          6.9159         D2E/DX2 =    0.0179             !
 ! D206  D(99,74,75,77)       -171.6325         D2E/DX2 =    0.0181             !
 ! D207  D(100,74,75,76)       121.8709         D2E/DX2 =    0.0172             !
 ! D208  D(100,74,75,77)       -56.6776         D2E/DX2 =    0.0173             !
 ! D209  D(74,75,77,78)        -21.7936         D2E/DX2 =    0.0079             !
 ! D210  D(74,75,77,105)      -171.842          D2E/DX2 =    0.0112             !
 ! D211  D(76,75,77,78)        159.6684         D2E/DX2 =    0.0118             !
 ! D212  D(76,75,77,105)         9.62           D2E/DX2 =    0.0122             !
 ! D213  D(75,77,78,79)       -161.4097         D2E/DX2 =    0.0122             !
 ! D214  D(75,77,78,81)         76.9184         D2E/DX2 =    0.0138             !
 ! D215  D(75,77,78,104)       -44.858          D2E/DX2 =    0.01               !
 ! D216  D(105,77,78,79)       -12.6557         D2E/DX2 =    0.0106             !
 ! D217  D(105,77,78,81)      -134.3277         D2E/DX2 =    0.0124             !
 ! D218  D(105,77,78,104)      103.8959         D2E/DX2 =    0.0101             !
 ! D219  D(77,78,79,80)        140.8926         D2E/DX2 =    0.023              !
 ! D220  D(77,78,79,83)        -42.031          D2E/DX2 =    0.0249             !
 ! D221  D(81,78,79,80)        -93.707          D2E/DX2 =    0.0164             !
 ! D222  D(81,78,79,83)         83.3694         D2E/DX2 =    0.0207             !
 ! D223  D(104,78,79,80)        21.5053         D2E/DX2 =    0.0145             !
 ! D224  D(104,78,79,83)      -161.4182         D2E/DX2 =    0.0167             !
 ! D225  D(77,78,81,82)         56.4512         D2E/DX2 =    0.0217             !
 ! D226  D(77,78,81,102)       -62.3042         D2E/DX2 =    0.0182             !
 ! D227  D(77,78,81,103)      -179.6039         D2E/DX2 =    0.0207             !
 ! D228  D(79,78,81,82)        -66.4588         D2E/DX2 =    0.017              !
 ! D229  D(79,78,81,102)       174.7857         D2E/DX2 =    0.0173             !
 ! D230  D(79,78,81,103)        57.486          D2E/DX2 =    0.0168             !
 ! D231  D(104,78,81,82)       179.6471         D2E/DX2 =    0.0142             !
 ! D232  D(104,78,81,102)       60.8916         D2E/DX2 =    0.0133             !
 ! D233  D(104,78,81,103)      -56.4081         D2E/DX2 =    0.0137             !
 ! D234  D(78,79,83,84)       -147.6424         D2E/DX2 =    0.0245             !
 ! D235  D(78,79,83,109)        -8.4644         D2E/DX2 =    0.0171             !
 ! D236  D(80,79,83,84)         29.3647         D2E/DX2 =    0.0156             !
 ! D237  D(80,79,83,109)       168.5427         D2E/DX2 =    0.0174             !
 ! D238  D(78,81,82,1)         137.3025         D2E/DX2 =    0.0142             !
 ! D239  D(78,81,82,114)        90.6574         D2E/DX2 =    0.0181             !
 ! D240  D(102,81,82,1)       -100.8472         D2E/DX2 =    0.0146             !
 ! D241  D(102,81,82,114)     -147.4923         D2E/DX2 =    0.0186             !
 ! D242  D(103,81,82,1)         13.8125         D2E/DX2 =    0.0137             !
 ! D243  D(103,81,82,114)      -32.8326         D2E/DX2 =    0.0166             !
 ! D244  D(81,82,114,85)      -113.3973         D2E/DX2 =    0.0366             !
 ! D245  D(79,83,84,85)         97.4425         D2E/DX2 =    0.0178             !
 ! D246  D(79,83,84,86)       -141.9168         D2E/DX2 =    0.0235             !
 ! D247  D(79,83,84,108)       -21.8413         D2E/DX2 =    0.0131             !
 ! D248  D(109,83,84,85)       -42.5748         D2E/DX2 =    0.0169             !
 ! D249  D(109,83,84,86)        78.0659         D2E/DX2 =    0.0191             !
 ! D250  D(109,83,84,108)     -161.8586         D2E/DX2 =    0.0127             !
 ! D251  D(83,84,85,106)      -176.4768         D2E/DX2 =    0.0163             !
 ! D252  D(83,84,85,107)        65.4014         D2E/DX2 =    0.0171             !
 ! D253  D(83,84,85,114)       -58.2137         D2E/DX2 =    0.0158             !
 ! D254  D(86,84,85,106)        63.4951         D2E/DX2 =    0.0141             !
 ! D255  D(86,84,85,107)       -54.6267         D2E/DX2 =    0.0139             !
 ! D256  D(86,84,85,114)      -178.2418         D2E/DX2 =    0.0161             !
 ! D257  D(108,84,85,106)      -59.6138         D2E/DX2 =    0.0136             !
 ! D258  D(108,84,85,107)     -177.7356         D2E/DX2 =    0.0135             !
 ! D259  D(108,84,85,114)       58.6492         D2E/DX2 =    0.0142             !
 ! D260  D(83,84,86,87)        -93.4037         D2E/DX2 =    0.0143             !
 ! D261  D(83,84,86,88)         84.9203         D2E/DX2 =    0.0152             !
 ! D262  D(85,84,86,87)         27.5637         D2E/DX2 =    0.0126             !
 ! D263  D(85,84,86,88)       -154.1123         D2E/DX2 =    0.0126             !
 ! D264  D(108,84,86,87)       149.8658         D2E/DX2 =    0.0121             !
 ! D265  D(108,84,86,88)       -31.8102         D2E/DX2 =    0.0129             !
 ! D266  D(84,85,114,1)        150.0858         D2E/DX2 =    0.0138             !
 ! D267  D(84,85,114,82)        83.7312         D2E/DX2 =    0.0163             !
 ! D268  D(106,85,114,1)       -89.3074         D2E/DX2 =    0.0133             !
 ! D269  D(106,85,114,82)     -155.6621         D2E/DX2 =    0.0159             !
 ! D270  D(107,85,114,1)        26.0961         D2E/DX2 =    0.0128             !
 ! D271  D(107,85,114,82)      -40.2585         D2E/DX2 =    0.0141             !
 ! D272  D(84,86,88,89)         -0.6558         D2E/DX2 =    0.0061             !
 ! D273  D(84,86,88,112)      -174.4797         D2E/DX2 =    0.0087             !
 ! D274  D(87,86,88,89)        177.6372         D2E/DX2 =    0.0102             !
 ! D275  D(87,86,88,112)         3.8133         D2E/DX2 =    0.0102             !
 ! D276  D(86,88,89,90)       -165.9999         D2E/DX2 =    0.0102             !
 ! D277  D(86,88,89,110)        74.9968         D2E/DX2 =    0.0145             !
 ! D278  D(86,88,89,111)       -45.3817         D2E/DX2 =    0.0139             !
 ! D279  D(112,88,89,90)         7.8456         D2E/DX2 =    0.0108             !
 ! D280  D(112,88,89,110)     -111.1577         D2E/DX2 =    0.0149             !
 ! D281  D(112,88,89,111)      128.4637         D2E/DX2 =    0.0143             !
 ! D282  D(88,89,90,91)         -2.364          D2E/DX2 =    0.0199             !
 ! D283  D(88,89,90,92)        178.3728         D2E/DX2 =    0.0206             !
 ! D284  D(110,89,90,91)       119.7888         D2E/DX2 =    0.0189             !
 ! D285  D(110,89,90,92)       -59.4744         D2E/DX2 =    0.0194             !
 ! D286  D(111,89,90,91)      -125.3151         D2E/DX2 =    0.019              !
 ! D287  D(111,89,90,92)        55.4216         D2E/DX2 =    0.0195             !
 ! D288  D(89,90,92,113)       179.538          D2E/DX2 =    0.0172             !
 ! D289  D(91,90,92,113)         0.2686         D2E/DX2 =    0.0164             !
 --------------------------------------------------------------------------------
 Trust Radius=3.00D-01 FncErr=1.00D-07 GrdErr=1.00D-06
 Number of steps in this run=    624 maximum allowed number of steps=    684.
 Search for a saddle point of order  1.
 GradGradGradGradGradGradGradGradGradGradGradGradGradGradGradGradGradGrad

 Stoichiometry    C33H55AuN5O16PS2Se
 Framework group  C1[X(C33H55AuN5O16PS2Se)]
 Deg. of freedom   336
 Full point group                 C1      NOp   1
 Largest Abelian subgroup         C1      NOp   1
 Largest concise Abelian subgroup C1      NOp   1
                         Standard orientation:                         
 ---------------------------------------------------------------------
 Center     Atomic      Atomic             Coordinates (Angstroms)
 Number     Number       Type             X           Y           Z
 ---------------------------------------------------------------------
      1         79           0        0.238683   -2.051223   -0.229475
      2         15           0        0.539598   -4.101726   -1.352089
      3          6           0       -0.309344   -5.523107   -0.513731
      4          1           0       -0.055106   -6.445430   -1.050793
      5          1           0       -1.386389   -5.359507   -0.644406
      6          6           0        2.327732   -4.573175   -1.412751
      7          1           0        2.405775   -5.591678   -1.814276
      8          1           0        2.662312   -4.593929   -0.369833
      9          6           0       -0.079123   -4.143912   -3.105428
     10          1           0        0.382391   -3.288380   -3.611547
     11          1           0       -1.151918   -3.920898   -3.053212
     12          6           0        0.029095   -5.657006    0.977754
     13          1           0        1.095132   -5.846476    1.139010
     14          1           0       -0.235437   -4.748789    1.528743
     15          1           0       -0.526418   -6.494272    1.414270
     16          6           0        0.170392   -5.436329   -3.895316
     17          1           0       -0.222212   -5.333158   -4.913122
     18          1           0        1.238645   -5.663254   -3.975885
     19          1           0       -0.326049   -6.298460   -3.438237
     20          6           0        3.201534   -3.589192   -2.202245
     21          1           0        3.190066   -2.600107   -1.734633
     22          1           0        4.239106   -3.939870   -2.205630
     23          1           0        2.881030   -3.496923   -3.246609
     24         16           0        2.162895   -1.989182    1.402043
     25          8           0        3.669579   -0.501632   -0.208125
     26          8           0        2.969528    0.455796    3.262003
     27          8           0        4.158983   -0.926931    4.623719
     28          8           0        5.507484    1.727607    2.705964
     29          8           0        4.566540    3.744053    3.183277
     30          8           0        5.698765    2.537048   -0.075628
     31          8           0        7.856352    1.848924    0.137709
     32          8           0        5.976630   -0.229557   -2.009957
     33          8           0        7.111222    1.375184   -3.150875
     34          6           0        2.887010   -0.383696    0.991747
     35          6           0        3.790731    0.140180    2.130299
     36          6           0        4.510834    1.429399    1.714414
     37          6           0        5.201673    1.259259    0.364469
     38          6           0        4.188011    0.742138   -0.666305
     39          6           0        3.232275   -0.172897    4.442380
     40          6           0        2.195691    0.211341    5.470664
     41          6           0        5.422575    2.910909    3.373747
     42          6           0        6.549114    3.014472    4.373813
     43          6           0        7.049530    2.696569   -0.173603
     44          6           0        7.381752    4.041468   -0.766714
     45          6           0        4.770405    0.552070   -2.059941
     46          6           0        7.093550    0.312961   -2.566002
     47          6           0        8.295410   -0.560388   -2.314988
     48          1           0        2.077772    0.348186    0.814990
     49          1           0        4.520166   -0.621928    2.412591
     50          1           0        3.802118    2.261558    1.674465
     51          1           0        6.034639    0.560152    0.448994
     52          1           0        3.368509    1.477340   -0.762183
     53          1           0        2.504556   -0.150907    6.452061
     54          1           0        1.235198   -0.241229    5.200037
     55          1           0        2.054908    1.296110    5.489906
     56          1           0        7.512697    2.921205    3.862333
     57          1           0        6.483722    2.191603    5.093403
     58          1           0        6.489815    3.971652    4.893061
     59          1           0        7.344034    3.942695   -1.858099
     60          1           0        8.394548    4.327069   -0.477501
     61          1           0        6.661066    4.803480   -0.461200
     62          1           0        4.049553    0.006365   -2.675750
     63          1           0        4.987748    1.517947   -2.518331
     64          1           0        9.038110   -0.392812   -3.097147
     65          1           0        8.020579   -1.615959   -2.258505
     66          1           0        8.726261   -0.260633   -1.352564
     67          7           0      -10.397852   -0.313661    2.436489
     68          6           0       -9.182865   -0.114367    1.643706
     69          6           0       -7.919680   -0.309968    2.502481
     70          8           0       -7.878531    0.139274    3.642352
     71          6           0       -9.207279    1.328551    1.091897
     72          8           0       -8.092487    1.639320    0.271781
     73          7           0       -6.840429   -1.003824    2.001543
     74          6           0       -6.690174   -1.649472    0.707349
     75          6           0       -6.478831   -0.695551   -0.480103
     76          8           0       -7.324755   -0.642181   -1.371691
     77          7           0       -5.342605    0.068124   -0.560810
     78          6           0       -4.425856    0.475739    0.512675
     79          6           0       -3.578629    1.674256    0.058988
     80          8           0       -3.309282    2.589846    0.819430
     81          6           0       -3.456251   -0.643152    0.984774
     82         16           0       -2.390040   -1.402058   -0.329687
     83          7           0       -3.107800    1.591966   -1.234306
     84          6           0       -1.812391    2.194019   -1.561274
     85          6           0       -0.705223    1.126432   -1.542218
     86          6           0       -1.899751    2.833124   -2.962032
     87          8           0       -1.564226    2.206825   -3.961382
     88          7           0       -2.396502    4.098219   -3.023000
     89          6           0       -2.870488    4.925557   -1.932431
     90          6           0       -3.639731    6.098975   -2.512925
     91          8           0       -3.781968    6.315200   -3.696013
     92          8           0       -4.133598    6.882701   -1.538358
     93          1           0      -10.162397    1.467452    0.568273
     94          1           0       -9.175771    2.026782    1.934550
     95          1           0       -8.164207    1.107448   -0.539699
     96          1           0       -9.207317   -0.803842    0.793346
     97          1           0      -10.247974    0.140828    3.338480
     98          1           0      -10.515232   -1.304308    2.644515
     99          1           0       -7.576922   -2.234409    0.451605
    100          1           0       -5.853277   -2.350668    0.777352
    101          1           0       -6.086226   -1.084914    2.673117
    102          1           0       -4.018459   -1.482526    1.403686
    103          1           0       -2.825435   -0.246000    1.783846
    104          1           0       -4.988937    0.821299    1.385278
    105          1           0       -5.428716    0.729709   -1.326004
    106          1           0        0.269844    1.589644   -1.725129
    107          1           0       -0.862429    0.392245   -2.334912
    108          1           0       -1.623141    2.944622   -0.790736
    109          1           0       -3.257377    0.697803   -1.693309
    110          1           0       -2.050390    5.335048   -1.324662
    111          1           0       -3.524788    4.380329   -1.242926
    112          1           0       -2.532235    4.479469   -3.954681
    113          1           0       -4.606579    7.616225   -1.975768
    114         34           0       -0.572657    0.277075    0.089693
 ---------------------------------------------------------------------
 Rotational constants (GHZ):      0.0402314      0.0185051      0.0165706
 General basis read from cards:  (5D, 7F)
 ======================================================================================================
                                       Pseudopotential Parameters
 ======================================================================================================
  Center     Atomic      Valence      Angular      Power
  Number     Number     Electrons     Momentum     of R      Exponent        Coefficient   SO-Coeffient
 ======================================================================================================
    1         79           19
                                      G and up 
                                                     1      622.6287956      -60.00000000    0.00000000
                                                     2      136.2843607     -555.52923120    0.00000000
                                                     2       33.1549781     -168.00197850    0.00000000
                                                     2        9.9894895      -63.03998750    0.00000000
                                                     2        3.0481312       -4.25166810    0.00000000
                                      S - G
                                                     0      194.7374304        3.00000000    0.00000000
                                                     1      351.5327447       38.60208800    0.00000000
                                                     2      122.3270402      864.83707270    0.00000000
                                                     2       32.0914617      374.99355200    0.00000000
                                                     2        5.2451812      289.79101000    0.00000000
                                                     2        4.4916223     -152.45327730    0.00000000
                                      P - G
                                                     0      420.6158801        2.00000000    0.00000000
                                                     1      109.4417815       73.88856250    0.00000000
                                                     2       34.1714280      326.67298720    0.00000000
                                                     2        5.9879750      126.58145910    0.00000000
                                      D - G
                                                     0      219.2666158        3.00000000    0.00000000
                                                     1      122.7297786       55.67931490    0.00000000
                                                     2       63.1063369      449.19873350    0.00000000
                                                     2       18.3684520      215.02690910    0.00000000
                                                     2        4.4972844       64.08409950    0.00000000
                                      F - G
                                                     0      108.5506037        4.00000000    0.00000000
                                                     1       56.4795527       51.80653350    0.00000000
                                                     2       29.2069159      231.21831130    0.00000000
                                                     2        9.5440543      119.00473860    0.00000000
                                                     2        2.8965118       15.34241880    0.00000000
    2         15
                                   No pseudopotential on this center.
    3          6
                                   No pseudopotential on this center.
    4          1
                                   No pseudopotential on this center.
    5          1
                                   No pseudopotential on this center.
    6          6
                                   No pseudopotential on this center.
    7          1
                                   No pseudopotential on this center.
    8          1
                                   No pseudopotential on this center.
    9          6
                                   No pseudopotential on this center.
   10          1
                                   No pseudopotential on this center.
   11          1
                                   No pseudopotential on this center.
   12          6
                                   No pseudopotential on this center.
   13          1
                                   No pseudopotential on this center.
   14          1
                                   No pseudopotential on this center.
   15          1
                                   No pseudopotential on this center.
   16          6
                                   No pseudopotential on this center.
   17          1
                                   No pseudopotential on this center.
   18          1
                                   No pseudopotential on this center.
   19          1
                                   No pseudopotential on this center.
   20          6
                                   No pseudopotential on this center.
   21          1
                                   No pseudopotential on this center.
   22          1
                                   No pseudopotential on this center.
   23          1
                                   No pseudopotential on this center.
   24         16
                                   No pseudopotential on this center.
   25          8
                                   No pseudopotential on this center.
   26          8
                                   No pseudopotential on this center.
   27          8
                                   No pseudopotential on this center.
   28          8
                                   No pseudopotential on this center.
   29          8
                                   No pseudopotential on this center.
   30          8
                                   No pseudopotential on this center.
   31          8
                                   No pseudopotential on this center.
   32          8
                                   No pseudopotential on this center.
   33          8
                                   No pseudopotential on this center.
   34          6
                                   No pseudopotential on this center.
   35          6
                                   No pseudopotential on this center.
   36          6
                                   No pseudopotential on this center.
   37          6
                                   No pseudopotential on this center.
   38          6
                                   No pseudopotential on this center.
   39          6
                                   No pseudopotential on this center.
   40          6
                                   No pseudopotential on this center.
   41          6
                                   No pseudopotential on this center.
   42          6
                                   No pseudopotential on this center.
   43          6
                                   No pseudopotential on this center.
   44          6
                                   No pseudopotential on this center.
   45          6
                                   No pseudopotential on this center.
   46          6
                                   No pseudopotential on this center.
   47          6
                                   No pseudopotential on this center.
   48          1
                                   No pseudopotential on this center.
   49          1
                                   No pseudopotential on this center.
   50          1
                                   No pseudopotential on this center.
   51          1
                                   No pseudopotential on this center.
   52          1
                                   No pseudopotential on this center.
   53          1
                                   No pseudopotential on this center.
   54          1
                                   No pseudopotential on this center.
   55          1
                                   No pseudopotential on this center.
   56          1
                                   No pseudopotential on this center.
   57          1
                                   No pseudopotential on this center.
   58          1
                                   No pseudopotential on this center.
   59          1
                                   No pseudopotential on this center.
   60          1
                                   No pseudopotential on this center.
   61          1
                                   No pseudopotential on this center.
   62          1
                                   No pseudopotential on this center.
   63          1
                                   No pseudopotential on this center.
   64          1
                                   No pseudopotential on this center.
   65          1
                                   No pseudopotential on this center.
   66          1
[...]
 ,0.00000203,-0.00000129,0.00000089,-0.00000164,0.00000169,-0.00000018,
 -0.00000042,-0.00000034,-0.00000088,0.00000025,0.00000014,0.00000060,0
 .00000134,-0.00000058,0.00000082,-0.00000001,0.00000071,0.00000118,0.0
 0000029,0.00000066,-0.00000108,0.00000052,0.00000010,0.,-0.00000070,-0
 .00000126,-0.00001177,0.00000086,-0.00001595,-0.00000743,-0.00000220,-
 0.00000652,0.00000294,0.00000033,-0.00003076,0.00000115,-0.00000004,-0
 .00001382,-0.00000891,-0.00002318,-0.00002222,0.00000574,-0.00001391,-
 0.00000794,-0.00000888,-0.00000365,-0.00000454,-0.00000575,0.00000150,
 -0.00000411,-0.00001193,0.00000274,-0.00000146,-0.00000624,0.00000136,
 -0.00000318,0.00000800,0.00000516,-0.00000068,-0.00000706,0.00000391,0
 .00001710,0.00000920,0.00000378,0.00000806,0.00000168,0.00000447,0.000
 00270,0.00000793,-0.00000119,0.00000433,-0.00000509,-0.00000529,0.0000
 3559,0.00000476,0.00000064,-0.00000370,-0.00000294,0.00003028,0.000018
 28,-0.00000133,-0.00000009,-0.00000139,0.00001139,-0.00000092,0.000003
 40,-0.00000053,0.00000035,0.00000008,0.00000590,-0.00000443,0.00000296
 ,0.00001256,-0.00000193,0.00000119,-0.00000209,0.00000086,-0.00000094,
 -0.00000001,0.00000073,0.00000085,0.00000128,-0.00000104,0.00000086,-0
 .00000095,0.00000160,0.00000146,0.00000012,-0.00000017,-0.00000021,-0.
 00000217,0.00000176,0.00000107,-0.00000057,0.00000046,-0.00000127,-0.0
 0000100,0.00000109,0.00000134,-0.00000129,-0.00000073,0.00000098,0.000
 00060,-0.00000020,0.,-0.00000026,0.00000048,0.00000037,-0.00000103,-0.
 00000109,-0.00000057,0.00000119,-0.00000039,-0.00000035,-0.00000103,0.
 00000027,0.00000011,0.00000086,0.00000036,0.00000170,-0.00000087,-0.00
 000242,-0.00000130,0.00000199,0.00000104,0.00000104,0.00000008,0.00000
 019,0.00000052,0.00000031,0.00000010,0.00000049,-0.00000006,0.00000019
 ,0.00000006,0.00000569,-0.00000809,-0.00000250,0.00000035,0.00000116,-
 0.00000158,-0.00005868,0.00005142,0.00005312,0.00001312,-0.00003976,-0
 .00004380,-0.00001146,0.00002530,0.00002916,0.00002909,-0.00003553,-0.
 00002938,0.00005313,-0.00002233,-0.00002717,-0.00000580,0.00001047,0.0
 0002007,-0.00005879,-0.00003212,0.00001794,0.00003789,0.00000567,-0.00
 001563,0.00004792,0.00002275,-0.00002859,-0.00000625,0.00000536,0.0000
 0959,-0.00004920,-0.00003456,0.00011658,0.00001833,0.00003807,-0.00008
 429,0.00001101,0.00000363,0.00000424,-0.00001894,-0.00001361,-0.000022
 67,-0.00000031,0.00005938,-0.00010548,-0.00002518,-0.00000784,-0.00000
 613,0.00002400,-0.00000072,0.00000979,0.00020527,-0.00020098,-0.000232
 51,-0.00004383,0.00001122,-0.00003029,0.00061552,-0.00095438,0.0002438
 2,0.00126629,-0.00211023,-0.00360045,0.02599855,-0.03190585,0.02065577
 ,-0.00369349,0.00507000,-0.00210970,-0.12391482,0.14975281,-0.13098447
 ,0.00000336,0.00000069,0.00000007,0.00000197,0.00000071,-0.00001577,-0
 .00002050,0.00000791,0.00001819,-0.00000163,-0.00000842,-0.00000071,-0
 .00000537,0.00000788,-0.00000270,0.00000166,-0.00000089,0.00000270,0.0
 0000026,0.00000138,-0.00000336,0.00000231,-0.00000260,-0.00000231,-0.0
 0000216,-0.00000127,0.00000454,0.00000074,0.00000632,-0.00000365,-0.00
 000031,-0.00000227,0.00000297,0.00000063,0.00000417,-0.00000236,-0.000
 01572,-0.00000572,0.00001758,0.00000041,0.00000044,-0.00000217,-0.0000
 0733,0.00000359,-0.00000079,0.00000957,-0.00000182,0.00002179,0.000009
 72,-0.00001693,0.00001367,0.00005639,0.00008006,-0.00016332,-0.0001118
 3,-0.00012002,-0.00006111,0.00025971,-0.00035136,0.00008429,0.09936543
 ,-0.11931548,0.11624154,0.01497581,-0.00898510,0.00250308,-0.00302551,
 0.00828047,-0.00544368,0.00029752,0.00033742,0.00038134,0.00000468,-0.
 00006020,0.00000081,-0.00011202,-0.00017017,-0.00010685,-0.00006227,0.
 00009454,0.00041357,-0.00003866,-0.00014403,-0.00012041,0.00003169,0.0
 0036701,0.00003676,0.00119686,-0.00417726,-0.00079497,0.00010373,-0.00
 001227,0.00036325,0.00002137,-0.00004756,0.00014442,-0.00032609,-0.000
 11260,0.00025099,-0.00010757,0.00020015,-0.00000763,0.00035710,-0.0000
 1360,-0.00004291,-0.00002209,-0.00020287,0.00005811,-0.00067715,0.0007
 5206,-0.00124899,0.00007163,-0.00054035,-0.00041138,0.00003249,0.00002
 087,0.00006209,-0.00000825,-0.00010621,0.00006021,-0.00010699,0.000057
 83,0.00000251,-0.00012669,-0.00013468,0.00027685,0.00005336,-0.0000510
 8,0.00001188,-0.00005845,-0.00008127,-0.00012444,-0.00139085,0.0000733
 7,0.00459449,0.00172410,0.00207603,-0.00231181,0.00001940,0.00038404,0
 .00109562,-0.00005433,0.00049443,0.00090293,0.00074593,0.00164214,0.00
 075508,-0.00033908,0.00070573,0.00009770,0.00089431,0.00066100,-0.0002
 4476,0.00029521,0.00007874,-0.00005630,0.00035595,0.00017259,-0.000299
 29,0.00016238,0.00027270,-0.00024659,-0.00487090,0.00180722,0.00228295
 ,0.00033245,0.00053147,-0.00275353,-0.00047274,-0.00071782,0.00072750,
 -0.00046856,-0.00014827,0.00023256,0.00008185,-0.00223766,0.00060084,0
 .00045122,-0.00043285,-0.00186366,-0.00019504,0.00000976,0.00009900,0.
 00032490,-0.00152160,-0.00067606,0.00000149,0.00005995,0.00011198,-0.0
 0080551,-0.00021095,0.00016450,0.00008438,0.00004172,-0.00008455,0.000
 03588,0.00035501,0.00005416,-0.00052134,-0.00034592,0.00035940,0.00002
 867,-0.00001418,0.00000420,-0.00000093,0.00040578,0.00044058,-0.000468
 54,-0.00043677,-0.00029743,0.00012701,0.00004891,-0.00005359,-0.000132
 51,0.00000522,-0.00006734,-0.00026038,0.00053331,-0.00000427,-0.000027
 90,0.00001749,0.00005779,0.00006919,-0.00013165,-0.00001610,0.00006081
 ,0.00006613,0.00006283,-0.00001385,-0.00000572,-0.00000654,-0.00001162
 ,-0.00000300,-0.00002058,0.00003154,0.00003314,0.00004583,0.00001668,-
 0.00000559,0.00000143,0.00001480,0.00003000,-0.00000120,0.00000006,0.0
 0000214,0.00003022,0.00002806,-0.00014993,0.00002197,0.00012121,-0.000
 02915,-0.00009917,0.00001901,0.00000775,-0.00001913,-0.00001931,0.0000
 1904,0.00002078,-0.00002671,-0.00000763,0.00000634,0.00024112,-0.00001
 040,-0.00003008,-0.00011674,-0.00003816,0.00005958,-0.00072952,0.00048
 017,0.00053304,0.00024603,-0.00022664,-0.00048935,-0.00024296,0.000015
 67,0.00016970,0.00036595,-0.00014850,-0.00016217,0.00078086,-0.0001049
 2,-0.00034436,-0.00028638,0.00011637,0.00017439,-0.00184845,-0.0008099
 0,-0.00020697,0.00099356,0.00013674,0.00055034,0.00179584,0.00027502,0
 .00012107,-0.00249035,0.00003752,0.00142106,-0.00008857,0.00139416,0.0
 0289667,-0.00113055,0.00006179,-0.00128278,-0.01418582,-0.00140212,-0.
 00329401,0.00113608,0.01580549,0.01104746,0.00106247,0.00056375,-0.002
 89847,-0.00392594,0.00851907,-0.01533568,-0.02512402,0.00480104,-0.007
 37958,-0.00256249,0.00295238,0.00049682,0.00075769,-0.00082949,0.00071
 391,0.00028241,-0.00043227,-0.00055688,0.00010601,-0.00003375,0.000090
 73,-0.00040058,0.00054792,-0.00011904,0.00018238,-0.00027261,0.0001699
 4,0.00016970,-0.00029137,-0.00008488,0.00007103,-0.00000517,0.00001211
 ,0.00000357,-0.00000598,-0.00003483,-0.00020689,0.00018779,0.00002459,
 -0.00003387,-0.00003352,-0.00000791,-0.00008708,0.00002172,-0.00000568
 ,-0.00006265,0.00000525,-0.00001983,0.00007984,-0.00001961,-0.00003706
 ,-0.00008575,-0.00015270,0.00009593,-0.00009964,-0.00010935,0.00017063
 ,-0.00050813,-0.00072595,-0.00033724,-0.00068724,-0.00217836,-0.000071
 25,-0.00007599,0.00053230,-0.00016046,-0.00014628,0.00016360,-0.000038
 81,0.00433237,-0.00567881,0.01082254,-0.00026359,0.00111318,-0.0028952
 6,0.00022486,-0.00032322,0.00024284,-0.00162799,0.00067952,-0.00112331
 ,0.00001391,0.00003400,-0.00004755,-0.00008893,0.00002100,-0.00003165,
 0.00000084,0.00025885,-0.00004920,-0.00001759,0.00006869,0.00002114,0.
 03585658,0.02193772,-0.05355279,-0.02071625,0.00105158,-0.00049828,0.0
 0012013,0.00103708,-0.00148814,-0.00142988,-0.00050671,-0.00054171,0.0
 0048739,-0.00015786,-0.00019764,-0.00002941,-0.00055058,-0.00182523,-0
 .00086700,0.00075394,-0.00010786,-0.00002644,-0.00013130,0.00026764,0.
 00002589,0.00087218,-0.00250854,-0.00030274,0.00001353,0.00002930,0.00
 019009,-0.00002316,-0.00002900,-0.00006617,-0.00026528,-0.00009203,-0.
 00026186,-0.00004354,0.00015700,-0.00000699,0.00027306,0.00009972,0.00
 000198,-0.00002377,-0.00015966,0.00012127,-0.00055464,0.00070723,-0.00
 073359,0.00005516,-0.00038088,-0.00029037,0.00001870,0.00001581,0.0000
 9459,0.00002561,-0.00007763,0.00007823,-0.00005829,-0.00002687,0.00018
 579,-0.00013759,-0.00007702,0.00003935,0.00012645,-0.00001019,-0.00005
 642,-0.00004042,0.00000440,-0.00008295,0.00539336,-0.00074494,0.009388
 19,-0.00023604,0.00194716,-0.00061745,0.00030476,0.00044485,0.00019159
 ,-0.00005336,0.00050740,0.00038649,0.00034648,0.00082017,0.00033600,-0
 .00018596,0.00036161,0.00003333,0.00038017,0.00030702,-0.00011735,0.00
 011005,0.00007848,-0.00002637,0.00016413,0.00015767,-0.00009155,0.0000
 7955,0.00018552,-0.00013054,-0.00040108,-0.00790402,0.00209352,-0.0005
 2232,0.00159468,-0.00082786,-0.00016628,-0.00029935,0.00046332,-0.0002
 1305,-0.00002205,0.00012799,0.00055385,-0.00090577,0.00012336,0.000243
 26,-0.00063059,-0.00090880,-0.00011718,0.00000688,0.00002663,0.0001877
 2,-0.00078771,-0.00032076,-0.00000250,0.00002735,0.00005290,-0.0003256
 1,-0.00014252,0.00007838,0.00003868,0.00002294,-0.00004569,-0.00001307
 ,0.00012477,-0.00009798,-0.00026849,-0.00022730,0.00019508,0.00000372,
 -0.00002057,0.00000078,-0.00230057,0.00285598,-0.00086857,-0.00049761,
 -0.00015838,-0.00039885,0.00006601,0.00008864,-0.00002622,-0.00006239,
 -0.00000529,-0.00003852,-0.00013454,0.00027293,-0.00006383,-0.00000014
 ,0.00000776,0.00002480,0.00006370,-0.00008084,-0.00005016,0.00003182,0
 .00004362,0.00003674,-0.00000777,-0.00000436,-0.00000345,-0.00000776,-
 0.00000262,-0.00001323,0.00001491,0.00001743,0.00002265,0.00000813,-0.
 00000907,0.00000157,0.00000654,0.00001305,0.00000054,-0.00000068,0.000
 00344,0.00001673,0.00001825,-0.00007479,0.00004148,0.00006169,-0.00000
 421,-0.00003891,0.00000810,0.00000633,-0.00001153,-0.00001423,0.000015
 44,0.00000868,-0.00001172,-0.00000633,0.00000413,0.00022400,-0.0000049
 5,-0.00002860,-0.00010811,-0.00003714,0.00005214,-0.00066916,0.0004300
 5,0.00049802,0.00022277,-0.00019903,-0.00045044,-0.00024173,0.00000471
 ,0.00017253,0.00036532,-0.00013113,-0.00016126,0.00071046,-0.00004942,
 -0.00031552,-0.00022882,0.00010888,0.00015812,-0.00192934,-0.00087686,
 -0.00016425,0.00099547,0.00015934,0.00054685,0.00167484,0.00024158,-0.
 00040643,-0.00159086,0.00022819,0.00090248,-0.00146137,0.00040327,-0.0
 0058642,0.00187619,-0.00119184,0.00015248,-0.00761259,0.00127001,-0.00
 137873,-0.00189673,0.00575513,0.00592834,-0.00014568,-0.00132273,0.001
 07995,0.00482082,-0.00766585,0.01716748,-0.00146838,-0.03583032,0.0189
 4334,0.00247346,-0.00042400,-0.00369719,-0.00056439,0.00044942,0.00068
 146,0.00019803,-0.00081086,0.00156157,0.00001157,0.00026718,0.00038965
 ,-0.00040238,0.00053218,-0.00004459,0.00023189,-0.00031650,0.00008374,
 0.00018432,-0.00032045,-0.00012134,0.00006953,-0.00000273,0.00000941,0
 .00000357,-0.00000468,-0.00003208,-0.00019684,0.00017150,0.00002192,-0
 .00003182,-0.00003120,-0.00000574,-0.00007909,0.00001880,-0.00000469,-
 0.00005759,0.00000487,-0.00002112,0.00009047,-0.00002416,-0.00003890,-
 0.00005391,-0.00016946,0.00007163,-0.00009608,-0.00011644,0.00017152,0
 .00002728,-0.00031354,-0.00028530,0.00098692,-0.00059357,-0.00041599,-
 0.00003012,0.00021622,-0.00003389,-0.00014063,0.00014860,0.00002028,0.
 00432623,-0.00578669,0.01427832,-0.00132995,0.00397041,-0.00435079,-0.
 00043570,0.00032779,-0.00019403,-0.00049345,0.00058399,-0.00065314,0.0
 0000663,-0.00003838,-0.00007648,-0.00005760,0.00010132,-0.00009756,-0.
 00000718,-0.00018361,-0.00019590,-0.00001725,0.00007123,0.00002235,-0.
 02436743,0.10339284,0.01261650,-0.01702785,-0.01063803,-0.00228151,0.0
 0011308,0.00049325,0.00099263,-0.00138879,-0.00119829,-0.00045055,-0.0
 0063908,0.00039129,-0.00009085,-0.00007562,-0.00007075,-0.00016380,-0.
 00064595,-0.00033573,0.00036878,-0.00012492,-0.00010022,-0.00009445,0.
 00018690,-0.00002398,0.00072502,-0.00222567,-0.00048774,0.00006043,-0.
 00001871,0.00010119,0.00000268,-0.00007441,0.00004223,-0.00025610,-0.0
 0005069,-0.00017255,-0.00002037,0.00010204,-0.00000330,0.00023048,0.00
 009646,-0.00006949,-0.00001083,-0.00017034,0.00008628,-0.00041787,0.00
 048919,-0.00074274,0.00003582,-0.00032545,-0.00029506,0.00002027,0.000
 00827,0.00006767,0.00001978,-0.00003539,0.00007709,0.00003234,-0.00005
 858,0.00014677,-0.00013724,-0.00008620,0.00007467,0.00009649,-0.000018
 32,-0.00005962,-0.00003767,-0.00001840,-0.00008232,-0.00302721,0.00183
 747,0.00165101,0.00021183,0.00130764,-0.00055357,0.00019304,0.00021667
 ,0.00026725,0.00004087,0.00026068,0.00031591,0.00032361,0.00072445,0.0
 0027067,-0.00013458,0.00030582,0.00000994,0.00032496,0.00028437,-0.000
 12231,0.00007944,0.00007307,-0.00003403,0.00006380,0.00015556,-0.00008
 974,0.00004079,0.00015670,-0.00011048,-0.00108018,-0.00079214,0.001601
 43,-0.00017272,0.00110422,-0.00115474,-0.00013676,-0.00033715,0.000446
 09,-0.00020323,0.00001393,0.00013745,0.00044229,-0.00115359,0.00029506
 ,0.00005422,-0.00028045,-0.00070716,-0.00010040,-0.00000736,0.00002568
 ,0.00014638,-0.00064318,-0.00025676,-0.00000381,0.00002104,0.00004813,
 -0.00025531,-0.00012124,0.00007821,0.00003434,0.00001746,-0.00004021,0
 .00005136,0.00006649,-0.00005836,-0.00017103,-0.00018554,0.00015419,-0
 .00000456,-0.00001572,-0.00000085,0.00054457,0.00106783,-0.00076565,-0
 .00030926,-0.00033560,-0.00025615,0.00004823,0.00005150,0.00000213,-0.
 00006224,-0.00000380,-0.00005429,-0.00016027,0.00028049,-0.00001428,0.
 00001556,0.00000333,0.00002613,0.00002940,-0.00004596,-0.00004728,0.00
 001437,0.00002519,0.00001305,-0.00000498,-0.00000383,-0.00000292,-0.00
 000757,-0.00000044,-0.00001052,0.00001175,0.00001353,0.00001991,0.0000
 1234,-0.00000661,-0.00000052,0.00000279,0.00001323,-0.00000089,0.00000
 242,0.00000524,0.00001896,0.00000919,-0.00008625,0.00003185,0.00007281
 ,0.00000686,-0.00003712,0.00000512,0.00000637,-0.00000878,-0.00001116,
 0.00001353,0.00000817,-0.00001068,-0.00000431,0.00000404,0.00019575,-0
 .00000753,-0.00001854,-0.00009630,-0.00004483,0.00003329,-0.00059122,0
 .00040894,0.00046766,0.00019373,-0.00018330,-0.00040097,-0.00017719,0.
 00001825,0.00012352,0.00027679,-0.00010000,-0.00011177,0.00065071,-0.0
 0005597,-0.00024473,-0.00015359,0.00013771,0.00010645,-0.00126749,-0.0
 0048126,-0.00029427,0.00071525,0.00009623,0.00046153,0.00091773,0.0004
 9726,0.00006680,-0.00158321,0.00044340,0.00015313,-0.00076593,0.000677
 41,0.00327858,-0.00009338,-0.00110483,-0.00091110,0.00282821,0.0062369
 3,-0.00336199,0.00319806,0.00991032,-0.00189098,0.00326600,-0.00073379
 ,-0.00075296,-0.00595921,0.00748393,-0.00766114,-0.01756810,0.01118068
 ,-0.08323112,-0.00017758,0.00023961,-0.00096193,-0.00054699,0.00070581
 ,0.00103361,0.00003523,-0.00025474,0.00004035,0.00011821,0.00001898,0.
 00009820,-0.00032173,0.00043333,-0.00007297,0.00015850,-0.00021792,0.0
 0012921,0.00013117,-0.00022733,-0.00007309,0.00005510,-0.00000697,0.00
 001029,0.00000110,-0.00000426,-0.00002429,-0.00014752,0.00012364,0.000
 01025,-0.00002503,-0.00002280,-0.00000719,-0.00006873,0.00001713,-0.00
 000396,-0.00004966,0.00000325,-0.00001739,0.00010853,-0.00004701,-0.00
 002784,-0.00005769,-0.00021277,0.00003739,-0.00014904,-0.00008478,0.00
 021202,0.00192505,-0.00127068,-0.00094472,0.00172555,0.00007465,0.0007
 0136,-0.00005212,0.00015728,-0.00003078,-0.00014237,-0.00006200,-0.000
 00358,-0.00065810,0.00291943,-0.00974963,0.00015350,0.01570291,-0.0199
 3026,0.00039562,-0.00034615,0.00089138,-0.00172793,0.00033135,-0.00104
 720,-0.00000863,0.00004066,-0.00000763,-0.00007525,0.00008881,-0.00002
 726,-0.00002616,0.00003150,0.00002459,-0.00001554,0.00005358,0.0000174
 9,0.00729642,-0.03458509,0.13561294\\-0.00000524,-0.00000300,0.0000026
 7,0.00000113,0.00000084,-0.00000156,-0.00000024,-0.00000004,-0.0000013
 7,-0.00000066,0.00000025,-0.00000131,-0.00000051,0.00000033,-0.0000006
 6,-0.00000041,0.00000069,-0.00000108,-0.00000058,0.00000011,-0.0000013
 0,-0.00000024,-0.00000029,-0.00000114,-0.00000023,0.00000060,-0.000000
 82,-0.00000059,0.00000054,-0.00000069,-0.00000060,0.00000082,-0.000000
 61,-0.00000016,-0.00000034,-0.00000116,-0.00000032,-0.00000043,-0.0000
 0116,-0.00000006,-0.00000016,-0.00000085,-0.00000042,-0.00000018,-0.00
 000117,-0.00000064,0.00000079,-0.00000109,-0.00000076,0.00000102,-0.00
 000099,-0.00000071,0.00000062,-0.00000114,-0.00000084,0.00000043,-0.00
 000096,-0.00000040,0.00000024,-0.00000094,-0.00000059,0.00000016,-0.00
 000088,-0.00000047,0.00000013,-0.00000108,-0.00000046,0.00000025,-0.00
 000098,-0.00000111,-0.00000008,-0.00000171,0.00000033,-0.00000055,-0.0
 0000030,-0.00000003,-0.00000108,-0.00000025,0.00000016,-0.00000099,-0.
 00000038,0.00000081,-0.00000085,-0.00000047,0.00000071,-0.00000085,0.0
 0000001,0.00000043,-0.00000022,0.00000013,0.00000023,-0.00000069,-0.00
 000086,0.00000010,0.00000039,0.00000002,-0.00000017,-0.00000024,-0.000
 00087,-0.00000016,0.00000079,-0.00000048,0.00000013,-0.00000073,-0.000
 00048,0.00000008,-0.00000055,-0.00000018,0.00000017,-0.00000055,-0.000
 00039,-0.00000012,-0.00000018,-0.00000037,0.00000072,-0.00000092,-0.00
 000023,0.00000049,-0.00000127,-0.00000022,0.00000012,-0.00000124,0.000
 00047,0.00000059,-0.00000130,-0.00000004,-0.00000009,-0.00000056,-0.00
 000014,0.00000016,-0.00000034,0.00000005,-0.00000047,0.00000029,-0.000
 00054,-0.00000029,-0.00000010,-0.00000051,-0.00000029,-0.00000019,-0.0
 0000108,0.00000050,-0.00000064,0.00000007,0.00000008,-0.00000086,-0.00
 000036,0.00000050,-0.00000051,0.00000011,-0.00000016,-0.00000060,-0.00
 000005,-0.00000015,-0.00000030,0.00000015,0.00000054,-0.00000143,-0.00
 000021,0.00000047,-0.00000106,-0.00000013,0.00000062,-0.00000122,0.000
 00012,0.00000053,-0.00000109,-0.00000016,0.00000072,-0.00000158,-0.000
 00028,0.00000059,-0.00000149,0.00000030,0.00000038,-0.00000023,0.00000
 006,0.00000016,-0.00000039,0.00000022,0.00000015,-0.00000047,0.0000000
 5,-0.00000028,0.00000029,-0.00000038,-0.00000010,0.00000005,-0.0000001
 4,-0.00000014,0.00000022,-0.00000075,-0.00000025,-0.00000016,-0.000001
 44,-0.00000039,-0.00000061,-0.00000066,0.00000009,0.,0.00000074,-0.000
 00007,0.00000037,0.00000088,0.00000015,0.00000023,0.00000063,0.0000004
 3,-0.00000001,0.00000058,0.00000030,0.00000043,0.00000107,-0.00000004,
 0.00000049,0.00000078,-0.00000013,-0.00000068,0.00000057,0.00000005,0.
 00000089,0.00000042,-0.00000023,0.00000065,0.00000037,0.00000001,0.000
 00060,0.00000055,-0.00000189,0.00000135,0.00000174,-0.00000082,-0.0000
 0092,0.00000031,-0.00000082,0.00000203,0.00000097,0.00000054,-0.000000
 53,0.00000036,-0.00000042,-0.00000158,0.00000076,-0.00000196,0.0000004
 2,-0.00000221,0.00000036,0.00000037,-0.00000082,0.00000007,-0.00000022
 ,0.00000122,0.00000059,-0.00000886,0.00001510,0.00000082,0.00000155,0.
 00000097,-0.00000012,0.00000101,0.00000060,-0.00000059,0.00000043,0.00
 000113,0.00000065,0.00000105,0.00000139,0.00000051,0.00000097,0.000001
 59,-0.00000019,0.00000081,0.00000163,0.00000068,0.00000088,0.00000171,
 0.00000005,0.00000069,0.00000126,0.00000037,0.00000026,0.00000125,0.00
 000020,0.00000068,0.00000104,-0.00000015,0.00000049,0.00000046,0.00000
 029,0.00000008,0.00000085,0.00000018,0.00000021,0.00000071,-0.00000012
 ,0.00000045,0.00000009,0.,0.00000013,0.00000012,0.00000013,0.00000006,
 0.00000023,0.00000075,-0.00000030,0.00000045,0.00000001,0.00000097,-0.
 00000032,0.00000044,-0.00000038,0.00000093,0.00000111,-0.00000009,-0.0
 0000019,-0.00000028,0.00000092,0.00000209,0.00000134,-0.00000023,0.000
 00086,0.00000032,-0.00000013,0.00000090,0.00000009,0.00000032,0.000000
 89,0.00000004,0.00000020,0.00000164,-0.00000037,0.00000015,0.00000056,
 -0.00000042,0.00000070,0.00000118,0.00000026,0.00000065,0.00000196,0.0
 0000550,0.00001317,-0.00001744\\\@


 TO DRY ONE'S EYES AND LAUGH AT A FALL
 AND BAFFLED, GET UP AND BEGIN AGAIN.
           R. BROWNING
 Job cpu time:       1 days  1 hours 42 minutes 19.4 seconds.
 File lengths (MBytes):  RWF=  13401 Int=      0 D2E=      0 Chk=     76 Scr=      1
 Normal termination of Gaussian 09 at Mon Oct 24 20:54:25 2022.
