 Entering Gaussian System, Link 0=g09
 Input=AF1-helio.com
 Output=AF1-helio.log
 Initial command:
 /home/scr/programs/g09/l1.exe "/home/scr/guest2/Gau-16318.inp" -scrdir="/home/scr/guest2/"
 Entering Link 1 = /home/scr/programs/g09/l1.exe PID=     16319.
  
 Copyright (c) 1988,1990,1992,1993,1995,1998,2003,2009,2013,
            Gaussian, Inc.  All Rights Reserved.
  
 This is part of the Gaussian(R) 09 program.  It is based on
 the Gaussian(R) 03 system (copyright 2003, Gaussian, Inc.),
 the Gaussian(R) 98 system (copyright 1998, Gaussian, Inc.),
 the Gaussian(R) 94 system (copyright 1995, Gaussian, Inc.),
 the Gaussian 92(TM) system (copyright 1992, Gaussian, Inc.),
 the Gaussian 90(TM) system (copyright 1990, Gaussian, Inc.),
 the Gaussian 88(TM) system (copyright 1988, Gaussian, Inc.),
 the Gaussian 86(TM) system (copyright 1986, Carnegie Mellon
 University), and the Gaussian 82(TM) system (copyright 1983,
 Carnegie Mellon University). Gaussian is a federally registered
 trademark of Gaussian, Inc.
  
 This software contains proprietary and confidential information,
 including trade secrets, belonging to Gaussian, Inc.
  
 This software is provided under written license and may be
 used, copied, transmitted, or stored only in accord with that
 written license.
  
 The following legend is applicable only to US Government
 contracts under FAR:
  
                    RESTRICTED RIGHTS LEGEND
  
 Use, reproduction and disclosure by the US Government is
 subject to restrictions as set forth in subparagraphs (a)
 and (c) of the Commercial Computer Software - Restricted
 Rights clause in FAR 52.227-19.
  
 Gaussian, Inc.
 340 Quinnipiac St., Bldg. 40, Wallingford CT 06492
  
  
 ---------------------------------------------------------------
 Warning -- This program may not be used in any manner that
 competes with the business of Gaussian, Inc. or will provide
 assistance to any competitor of Gaussian, Inc.  The licensee
 of this program is prohibited from giving any competitor of
 Gaussian, Inc. access to this program.  By using this program,
 the user acknowledges that Gaussian, Inc. is engaged in the
 business of creating and licensing software in the field of
 computational chemistry and represents and warrants to the
 licensee that it is not a competitor of Gaussian, Inc. and that
 it will not use this program in any manner prohibited above.
 ---------------------------------------------------------------
  

 Cite this work as:
 Gaussian 09, Revision D.01,
 M. J. Frisch, G. W. Trucks, H. B. Schlegel, G. E. Scuseria, 
 M. A. Robb, J. R. Cheeseman, G. Scalmani, V. Barone, B. Mennucci, 
 G. A. Petersson, H. Nakatsuji, M. Caricato, X. Li, H. P. Hratchian, 
 A. F. Izmaylov, J. Bloino, G. Zheng, J. L. Sonnenberg, M. Hada, 
 M. Ehara, K. Toyota, R. Fukuda, J. Hasegawa, M. Ishida, T. Nakajima, 
 Y. Honda, O. Kitao, H. Nakai, T. Vreven, J. A. Montgomery, Jr., 
 J. E. Peralta, F. Ogliaro, M. Bearpark, J. J. Heyd, E. Brothers, 
 K. N. Kudin, V. N. Staroverov, T. Keith, R. Kobayashi, J. Normand, 
 K. Raghavachari, A. Rendell, J. C. Burant, S. S. Iyengar, J. Tomasi, 
 M. Cossi, N. Rega, J. M. Millam, M. Klene, J. E. Knox, J. B. Cross, 
 V. Bakken, C. Adamo, J. Jaramillo, R. Gomperts, R. E. Stratmann, 
 O. Yazyev, A. J. Austin, R. Cammi, C. Pomelli, J. W. Ochterski, 
 R. L. Martin, K. Morokuma, V. G. Zakrzewski, G. A. Voth, 
 P. Salvador, J. J. Dannenberg, S. Dapprich, A. D. Daniels, 
 O. Farkas, J. B. Foresman, J. V. Ortiz, J. Cioslowski, 
 and D. J. Fox, Gaussian, Inc., Wallingford CT, 2013.
 
 ******************************************
 Gaussian 09:  EM64L-G09RevD.01 24-Apr-2013
                14-Oct-2022 
 ******************************************
 %mem=30000MB
 %nprocshared=8
 Will use up to    8 processors via shared memory.
 ----------------------------------------
 # opt freq=noraman b3lyp/gen pseudo=read
 ----------------------------------------
 1/14=-1,18=20,19=15,26=3,38=1/1,3;
 2/9=110,12=2,17=6,18=5,40=1/2;
 3/5=7,11=2,16=1,17=8,25=1,30=1,71=1,74=-5/1,2,3;
 4//1;
 5/5=2,38=5/2;
 6/7=2,8=2,9=2,10=2,28=1/1;
 7//1,2,3,16;
 1/14=-1,18=20,19=15,26=3/3(2);
 2/9=110/2;
 99//99;
 2/9=110/2;
 3/5=7,6=1,11=2,16=1,17=8,25=1,30=1,71=1,74=-5,82=7/1,2,3;
 4/5=5,16=3,69=1/1;
 5/5=2,38=5/2;
 7//1,2,3,16;
 1/14=-1,18=20,19=15,26=3/3(-5);
 2/9=110/2;
 6/7=2,8=2,9=2,10=2,19=2,28=1/1;
 99/9=1/99;
 --
 af
 --
 Symbolic Z-matrix:
 Charge =  0 Multiplicity = 1
 79                   0    -2.57313  -0.49083  -0.34191 
 16                   0    -0.60322  -1.40421  -1.20945 
 15                   0    -4.53375   0.38316   0.47282 
 8                    0     0.84004   0.6464   -0.36279 
 8                    0     1.92444  -2.80624  -0.03786 
 8                    0     2.44617  -3.48678  -2.12034 
 8                    0     4.37135  -1.34554   0.06531 
 8                    0     4.74909  -2.2358    2.09972 
 8                    0     4.02314   1.23859   1.28161 
 8                    0     5.47276   1.96583  -0.28109 
 8                    0     2.09967   3.08197  -0.981 
 8                    0     1.82167   5.25429  -0.52296 
 6                    0    -5.73998   0.82143  -0.83087 
 6                    0    -6.02154  -0.31483  -1.81074 
 6                    0    -5.42824  -0.75926   1.58866 
 6                    0    -4.61111  -1.18639   2.80443 
 6                    0    -4.24917   1.92275   1.42405 
 6                    0    -5.4764    2.56623   2.0628 
 6                    0     0.67928  -0.7401   -0.12424 
 6                    0     2.0195   -1.434    -0.39511 
 6                    0     3.11185  -0.81274   0.4663 
 6                    0     3.14323   0.69772   0.30042 
 6                    0     1.7402    1.26589   0.52981 
 6                    0     2.13279  -3.73971  -0.98309 
 6                    0     1.91285  -5.11189  -0.42546 
 6                    0     5.09855  -2.03773   0.96212 
 6                    0     6.37852  -2.51333   0.34747 
 6                    0     5.15693   1.8432    0.87611 
 6                    0     5.94514   2.32843   2.05307 
 6                    0     1.65312   2.76187   0.33486 
 6                    0     2.14415   4.38082  -1.29434 
 6                    0     2.6403    4.5896   -2.69229 
 1                    0    -6.66437   1.15537  -0.34599 
 1                    0    -5.31758   1.68553  -1.35641 
 1                    0    -6.71555   0.02238  -2.58666 
 1                    0    -6.47554  -1.17757  -1.31356 
 1                    0    -5.10086  -0.6506   -2.29892 
 1                    0    -6.36719  -0.27974   1.88929 
 1                    0    -5.69442  -1.63199   0.9826 
 1                    0    -5.17393  -1.91057   3.40116 
 1                    0    -4.37238  -0.33731   3.4527 
 1                    0    -3.6692   -1.65536   2.50122 
 1                    0    -3.76366   2.61267   0.72433 
 1                    0    -3.49598   1.67857   2.18133 
 1                    0    -6.22358   2.85053   1.31619 
 1                    0    -5.17996   3.47515   2.59569 
 1                    0    -5.9552    1.90166   2.78819 
 1                    0     0.39567  -0.89841   0.92631 
 1                    0     2.27035  -1.3454   -1.45656 
 1                    0     2.94064  -1.06652   1.51787 
 1                    0     3.49926   0.9665   -0.6975 
 1                    0     1.44165   1.06573   1.57269 
 1                    0     2.22325  -5.86162  -1.15211 
 1                    0     0.84884  -5.23707  -0.20052 
 1                    0     2.464    -5.23548   0.51008 
 1                    0     6.94454  -1.65934  -0.03514 
 1                    0     6.15767  -3.16699  -0.50135 
 1                    0     6.9674   -3.05154   1.08891 
 1                    0     5.33308   3.00446   2.65661 
 1                    0     6.84305   2.84075   1.7104 
 1                    0     6.21817   1.47948   2.6867 
 1                    0     0.61642   3.08796   0.46159 
 1                    0     2.27273   3.27733   1.07464 
 1                    0     2.62303   5.65106  -2.93606 
 1                    0     2.01771   4.03155  -3.39695 
 1                    0     3.66082   4.20506  -2.78008 
 

 GradGradGradGradGradGradGradGradGradGradGradGradGradGradGradGradGradGrad
 Berny optimization.
 Initialization pass.
                           ----------------------------
                           !    Initial Parameters    !
                           ! (Angstroms and Degrees)  !
 --------------------------                            --------------------------
 ! Name  Definition              Value          Derivative Info.                !
 --------------------------------------------------------------------------------
 ! R1    R(1,2)                  2.3383         estimate D2E/DX2                !
 ! R2    R(1,3)                  2.296          estimate D2E/DX2                !
 ! R3    R(2,19)                 1.8065         estimate D2E/DX2                !
 ! R4    R(3,13)                 1.8294         estimate D2E/DX2                !
 ! R5    R(3,15)                 1.8304         estimate D2E/DX2                !
 ! R6    R(3,17)                 1.832          estimate D2E/DX2                !
 ! R7    R(4,19)                 1.416          estimate D2E/DX2                !
 ! R8    R(4,23)                 1.411          estimate D2E/DX2                !
 ! R9    R(5,20)                 1.4212         estimate D2E/DX2                !
 ! R10   R(5,24)                 1.3447         estimate D2E/DX2                !
 ! R11   R(6,24)                 1.2064         estimate D2E/DX2                !
 ! R12   R(7,21)                 1.4251         estimate D2E/DX2                !
 ! R13   R(7,26)                 1.3462         estimate D2E/DX2                !
 ! R14   R(8,26)                 1.2064         estimate D2E/DX2                !
 ! R15   R(9,22)                 1.4246         estimate D2E/DX2                !
 ! R16   R(9,28)                 1.3474         estimate D2E/DX2                !
 ! R17   R(10,28)                1.2058         estimate D2E/DX2                !
 ! R18   R(11,30)                1.426          estimate D2E/DX2                !
 ! R19   R(11,31)                1.3368         estimate D2E/DX2                !
 ! R20   R(12,31)                1.2091         estimate D2E/DX2                !
 ! R21   R(13,14)                1.5266         estimate D2E/DX2                !
 ! R22   R(13,33)                1.096          estimate D2E/DX2                !
 ! R23   R(13,34)                1.096          estimate D2E/DX2                !
 ! R24   R(14,35)                1.0943         estimate D2E/DX2                !
 ! R25   R(14,36)                1.0944         estimate D2E/DX2                !
 ! R26   R(14,37)                1.0949         estimate D2E/DX2                !
 ! R27   R(15,16)                1.5259         estimate D2E/DX2                !
 ! R28   R(15,38)                1.0963         estimate D2E/DX2                !
 ! R29   R(15,39)                1.0954         estimate D2E/DX2                !
 ! R30   R(16,40)                1.0942         estimate D2E/DX2                !
 ! R31   R(16,41)                1.0946         estimate D2E/DX2                !
 ! R32   R(16,42)                1.095          estimate D2E/DX2                !
 ! R33   R(17,18)                1.5258         estimate D2E/DX2                !
 ! R34   R(17,43)                1.0961         estimate D2E/DX2                !
 ! R35   R(17,44)                1.0956         estimate D2E/DX2                !
 ! R36   R(18,45)                1.0939         estimate D2E/DX2                !
 ! R37   R(18,46)                1.0945         estimate D2E/DX2                !
 ! R38   R(18,47)                1.0941         estimate D2E/DX2                !
 ! R39   R(19,20)                1.5333         estimate D2E/DX2                !
 ! R40   R(19,48)                1.0996         estimate D2E/DX2                !
 ! R41   R(20,21)                1.5236         estimate D2E/DX2                !
 ! R42   R(20,49)                1.0943         estimate D2E/DX2                !
 ! R43   R(21,22)                1.5199         estimate D2E/DX2                !
 ! R44   R(21,50)                1.0952         estimate D2E/DX2                !
 ! R45   R(22,23)                1.531          estimate D2E/DX2                !
 ! R46   R(22,51)                1.0931         estimate D2E/DX2                !
 ! R47   R(23,30)                1.5111         estimate D2E/DX2                !
 ! R48   R(23,52)                1.1031         estimate D2E/DX2                !
 ! R49   R(24,25)                1.4974         estimate D2E/DX2                !
 ! R50   R(25,53)                1.0892         estimate D2E/DX2                !
 ! R51   R(25,54)                1.0947         estimate D2E/DX2                !
 ! R52   R(25,55)                1.0928         estimate D2E/DX2                !
 ! R53   R(26,27)                1.4974         estimate D2E/DX2                !
 ! R54   R(27,56)                1.0937         estimate D2E/DX2                !
 ! R55   R(27,57)                1.0939         estimate D2E/DX2                !
 ! R56   R(27,58)                1.0891         estimate D2E/DX2                !
 ! R57   R(28,29)                1.4973         estimate D2E/DX2                !
 ! R58   R(29,59)                1.0936         estimate D2E/DX2                !
 ! R59   R(29,60)                1.0891         estimate D2E/DX2                !
 ! R60   R(29,61)                1.094          estimate D2E/DX2                !
 ! R61   R(30,62)                1.0941         estimate D2E/DX2                !
 ! R62   R(30,63)                1.094          estimate D2E/DX2                !
 ! R63   R(31,32)                1.498          estimate D2E/DX2                !
 ! R64   R(32,64)                1.0892         estimate D2E/DX2                !
 ! R65   R(32,65)                1.0934         estimate D2E/DX2                !
 ! R66   R(32,66)                1.0941         estimate D2E/DX2                !
 ! A1    A(1,2,19)             103.3923         estimate D2E/DX2                !
 ! A2    A(1,3,13)             113.6635         estimate D2E/DX2                !
 ! A3    A(1,3,15)             113.3306         estimate D2E/DX2                !
 ! A4    A(1,3,17)             111.8083         estimate D2E/DX2                !
 ! A5    A(13,3,15)            105.1736         estimate D2E/DX2                !
 ! A6    A(13,3,17)            105.7307         estimate D2E/DX2                !
 ! A7    A(15,3,17)            106.493          estimate D2E/DX2                !
 ! A8    A(19,4,23)            113.3133         estimate D2E/DX2                !
 ! A9    A(20,5,24)            118.8962         estimate D2E/DX2                !
 ! A10   A(21,7,26)            118.8293         estimate D2E/DX2                !
 ! A11   A(22,9,28)            118.8696         estimate D2E/DX2                !
 ! A12   A(30,11,31)           116.4111         estimate D2E/DX2                !
 ! A13   A(3,13,14)            113.6226         estimate D2E/DX2                !
 ! A14   A(3,13,33)            108.2915         estimate D2E/DX2                !
 ! A15   A(3,13,34)            106.05           estimate D2E/DX2                !
 ! A16   A(14,13,33)           110.8058         estimate D2E/DX2                !
 ! A17   A(14,13,34)           110.4942         estimate D2E/DX2                !
 ! A18   A(33,13,34)           107.276          estimate D2E/DX2                !
 ! A19   A(13,14,35)           110.0436         estimate D2E/DX2                !
 ! A20   A(13,14,36)           111.8194         estimate D2E/DX2                !
 ! A21   A(13,14,37)           111.0613         estimate D2E/DX2                !
 ! A22   A(35,14,36)           107.5762         estimate D2E/DX2                !
 ! A23   A(35,14,37)           108.1598         estimate D2E/DX2                !
 ! A24   A(36,14,37)           108.0387         estimate D2E/DX2                !
 ! A25   A(3,15,16)            113.4999         estimate D2E/DX2                !
 ! A26   A(3,15,38)            108.2227         estimate D2E/DX2                !
 ! A27   A(3,15,39)            106.1846         estimate D2E/DX2                !
 ! A28   A(16,15,38)           111.2598         estimate D2E/DX2                !
 ! A29   A(16,15,39)           110.3627         estimate D2E/DX2                !
 ! A30   A(38,15,39)           106.9824         estimate D2E/DX2                !
 ! A31   A(15,16,40)           110.1416         estimate D2E/DX2                !
 ! A32   A(15,16,41)           111.8104         estimate D2E/DX2                !
 ! A33   A(15,16,42)           111.0943         estimate D2E/DX2                !
 ! A34   A(40,16,41)           107.6122         estimate D2E/DX2                !
 ! A35   A(40,16,42)           108.0597         estimate D2E/DX2                !
 ! A36   A(41,16,42)           107.9748         estimate D2E/DX2                !
 ! A37   A(3,17,18)            116.541          estimate D2E/DX2                !
 ! A38   A(3,17,43)            105.4458         estimate D2E/DX2                !
 ! A39   A(3,17,44)            106.1637         estimate D2E/DX2                !
 ! A40   A(18,17,43)           110.9818         estimate D2E/DX2                !
 ! A41   A(18,17,44)           110.9505         estimate D2E/DX2                !
 ! A42   A(43,17,44)           106.0825         estimate D2E/DX2                !
 ! A43   A(17,18,45)           111.9177         estimate D2E/DX2                !
 ! A44   A(17,18,46)           109.6445         estimate D2E/DX2                !
 ! A45   A(17,18,47)           111.9232         estimate D2E/DX2                !
 ! A46   A(45,18,46)           107.5464         estimate D2E/DX2                !
 ! A47   A(45,18,47)           108.1479         estimate D2E/DX2                !
 ! A48   A(46,18,47)           107.4657         estimate D2E/DX2                !
 ! A49   A(2,19,4)             109.8373         estimate D2E/DX2                !
 ! A50   A(2,19,20)            110.3673         estimate D2E/DX2                !
 ! A51   A(2,19,48)            109.7475         estimate D2E/DX2                !
 ! A52   A(4,19,20)            108.3085         estimate D2E/DX2                !
 ! A53   A(4,19,48)            109.3415         estimate D2E/DX2                !
 ! A54   A(20,19,48)           109.2114         estimate D2E/DX2                !
 ! A55   A(5,20,19)            109.5181         estimate D2E/DX2                !
 ! A56   A(5,20,21)            107.4317         estimate D2E/DX2                !
 ! A57   A(5,20,49)            109.7155         estimate D2E/DX2                !
 ! A58   A(19,20,21)           110.0148         estimate D2E/DX2                !
 ! A59   A(19,20,49)           109.5775         estimate D2E/DX2                !
 ! A60   A(21,20,49)           110.5515         estimate D2E/DX2                !
 ! A61   A(7,21,20)            108.7906         estimate D2E/DX2                !
 ! A62   A(7,21,22)            108.8195         estimate D2E/DX2                !
 ! A63   A(7,21,50)            108.7644         estimate D2E/DX2                !
 ! A64   A(20,21,22)           110.9987         estimate D2E/DX2                !
 ! A65   A(20,21,50)           109.6508         estimate D2E/DX2                !
 ! A66   A(22,21,50)           109.7737         estimate D2E/DX2                !
 ! A67   A(9,22,21)            108.3545         estimate D2E/DX2                !
 ! A68   A(9,22,23)            108.78           estimate D2E/DX2                !
 ! A69   A(9,22,51)            109.5272         estimate D2E/DX2                !
 ! A70   A(21,22,23)           109.4837         estimate D2E/DX2                !
 ! A71   A(21,22,51)           110.5322         estimate D2E/DX2                !
 ! A72   A(23,22,51)           110.1216         estimate D2E/DX2                !
 ! A73   A(4,23,22)            109.0832         estimate D2E/DX2                !
 ! A74   A(4,23,30)            108.4377         estimate D2E/DX2                !
 ! A75   A(4,23,52)            110.2274         estimate D2E/DX2                !
 ! A76   A(22,23,30)           113.6328         estimate D2E/DX2                !
 ! A77   A(22,23,52)           108.8047         estimate D2E/DX2                !
 ! A78   A(30,23,52)           106.6187         estimate D2E/DX2                !
 ! A79   A(5,24,6)             123.8703         estimate D2E/DX2                !
 ! A80   A(5,24,25)            110.5855         estimate D2E/DX2                !
 ! A81   A(6,24,25)            125.5431         estimate D2E/DX2                !
 ! A82   A(24,25,53)           109.9044         estimate D2E/DX2                !
 ! A83   A(24,25,54)           108.909          estimate D2E/DX2                !
 ! A84   A(24,25,55)           110.387          estimate D2E/DX2                !
 ! A85   A(53,25,54)           109.5939         estimate D2E/DX2                !
 ! A86   A(53,25,55)           110.4588         estimate D2E/DX2                !
 ! A87   A(54,25,55)           107.539          estimate D2E/DX2                !
 ! A88   A(7,26,8)             123.7877         estimate D2E/DX2                !
 ! A89   A(7,26,27)            110.5855         estimate D2E/DX2                !
 ! A90   A(8,26,27)            125.6268         estimate D2E/DX2                !
 ! A91   A(26,27,56)           109.7538         estimate D2E/DX2                !
 ! A92   A(26,27,57)           109.6172         estimate D2E/DX2                !
 ! A93   A(26,27,58)           109.8577         estimate D2E/DX2                !
 ! A94   A(56,27,57)           107.4362         estimate D2E/DX2                !
 ! A95   A(56,27,58)           110.133          estimate D2E/DX2                !
 ! A96   A(57,27,58)           110.007          estimate D2E/DX2                !
 ! A97   A(9,28,10)            123.7013         estimate D2E/DX2                !
 ! A98   A(9,28,29)            110.5985         estimate D2E/DX2                !
 ! A99   A(10,28,29)           125.7003         estimate D2E/DX2                !
 ! A100  A(28,29,59)           109.8473         estimate D2E/DX2                !
 ! A101  A(28,29,60)           109.8235         estimate D2E/DX2                !
 ! A102  A(28,29,61)           109.5838         estimate D2E/DX2                !
 ! A103  A(59,29,60)           110.1384         estimate D2E/DX2                !
 ! A104  A(59,29,61)           107.4428         estimate D2E/DX2                !
 ! A105  A(60,29,61)           109.9703         estimate D2E/DX2                !
 ! A106  A(11,30,23)           108.8585         estimate D2E/DX2                !
 ! A107  A(11,30,62)           109.676          estimate D2E/DX2                !
 ! A108  A(11,30,63)           109.929          estimate D2E/DX2                !
 ! A109  A(23,30,62)           109.5549         estimate D2E/DX2                !
 ! A110  A(23,30,63)           110.2773         estimate D2E/DX2                !
 ! A111  A(62,30,63)           108.5346         estimate D2E/DX2                !
 ! A112  A(11,31,12)           122.9199         estimate D2E/DX2                !
 ! A113  A(11,31,32)           111.4173         estimate D2E/DX2                !
 ! A114  A(12,31,32)           125.6624         estimate D2E/DX2                !
 ! A115  A(31,32,64)           109.8417         estimate D2E/DX2                !
 ! A116  A(31,32,65)           109.9796         estimate D2E/DX2                !
 ! A117  A(31,32,66)           109.5623         estimate D2E/DX2                !
 ! A118  A(64,32,65)           110.1268         estimate D2E/DX2                !
 ! A119  A(64,32,66)           109.8371         estimate D2E/DX2                !
 ! A120  A(65,32,66)           107.4581         estimate D2E/DX2                !
 ! A121  L(2,1,3,12,-1)        180.8491         estimate D2E/DX2                !
 ! A122  L(2,1,3,12,-2)        179.0308         estimate D2E/DX2                !
 ! D1    D(19,2,3,13)          143.0428         estimate D2E/DX2                !
 ! D2    D(19,2,3,15)          -97.3775         estimate D2E/DX2                !
 ! D3    D(19,2,3,17)           23.379          estimate D2E/DX2                !
 ! D4    D(1,2,19,4)           -70.6678         estimate D2E/DX2                !
 ! D5    D(1,2,19,20)          169.9818         estimate D2E/DX2                !
 ! D6    D(1,2,19,48)           49.5705         estimate D2E/DX2                !
 ! D7    D(1,3,13,14)           52.1922         estimate D2E/DX2                !
 ! D8    D(1,3,13,33)          175.7577         estimate D2E/DX2                !
 ! D9    D(1,3,13,34)          -69.3722         estimate D2E/DX2                !
 ! D10   D(15,3,13,14)         -72.3389         estimate D2E/DX2                !
 ! D11   D(15,3,13,33)          51.2267         estimate D2E/DX2                !
 ! D12   D(15,3,13,34)         166.0967         estimate D2E/DX2                !
 ! D13   D(17,3,13,14)         175.2044         estimate D2E/DX2                !
 ! D14   D(17,3,13,33)         -61.2301         estimate D2E/DX2                !
 ! D15   D(17,3,13,34)          53.64           estimate D2E/DX2                !
 ! D16   D(1,3,15,16)           58.5754         estimate D2E/DX2                !
 ! D17   D(1,3,15,38)         -177.4092         estimate D2E/DX2                !
 ! D18   D(1,3,15,39)          -62.8432         estimate D2E/DX2                !
 ! D19   D(13,3,15,16)        -176.684          estimate D2E/DX2                !
 ! D20   D(13,3,15,38)         -52.6686         estimate D2E/DX2                !
 ! D21   D(13,3,15,39)          61.8974         estimate D2E/DX2                !
 ! D22   D(17,3,15,16)         -64.7672         estimate D2E/DX2                !
 ! D23   D(17,3,15,38)          59.2483         estimate D2E/DX2                !
 ! D24   D(17,3,15,39)         173.8142         estimate D2E/DX2                !
 ! D25   D(1,3,17,18)         -177.6498         estimate D2E/DX2                !
 ! D26   D(1,3,17,43)           58.7594         estimate D2E/DX2                !
 ! D27   D(1,3,17,44)          -53.5317         estimate D2E/DX2                !
 ! D28   D(13,3,17,18)          58.1678         estimate D2E/DX2                !
 ! D29   D(13,3,17,43)         -65.423          estimate D2E/DX2                !
 ! D30   D(13,3,17,44)        -177.7142         estimate D2E/DX2                !
 ! D31   D(15,3,17,18)         -53.3626         estimate D2E/DX2                !
 ! D32   D(15,3,17,43)        -176.9534         estimate D2E/DX2                !
 ! D33   D(15,3,17,44)          70.7554         estimate D2E/DX2                !
 ! D34   D(23,4,19,2)          174.6177         estimate D2E/DX2                !
 ! D35   D(23,4,19,20)         -64.7791         estimate D2E/DX2                !
 ! D36   D(23,4,19,48)          54.1334         estimate D2E/DX2                !
 ! D37   D(19,4,23,22)          65.2399         estimate D2E/DX2                !
 ! D38   D(19,4,23,30)        -170.5331         estimate D2E/DX2                !
 ! D39   D(19,4,23,52)         -54.1651         estimate D2E/DX2                !
 ! D40   D(24,5,20,19)         119.9774         estimate D2E/DX2                !
 ! D41   D(24,5,20,21)        -120.5564         estimate D2E/DX2                !
 ! D42   D(24,5,20,49)          -0.3326         estimate D2E/DX2                !
 ! D43   D(20,5,24,6)            2.7708         estimate D2E/DX2                !
 ! D44   D(20,5,24,25)        -176.8581         estimate D2E/DX2                !
 ! D45   D(26,7,21,20)        -118.754          estimate D2E/DX2                !
 ! D46   D(26,7,21,22)         120.1911         estimate D2E/DX2                !
 ! D47   D(26,7,21,50)           0.636          estimate D2E/DX2                !
 ! D48   D(21,7,26,8)           -0.1887         estimate D2E/DX2                !
 ! D49   D(21,7,26,27)         179.836          estimate D2E/DX2                !
 ! D50   D(28,9,22,21)         114.4587         estimate D2E/DX2                !
 ! D51   D(28,9,22,23)        -126.5947         estimate D2E/DX2                !
 ! D52   D(28,9,22,51)          -6.1884         estimate D2E/DX2                !
 ! D53   D(22,9,28,10)           0.5962         estimate D2E/DX2                !
 ! D54   D(22,9,28,29)        -179.4369         estimate D2E/DX2                !
 ! D55   D(31,11,30,23)       -176.9795         estimate D2E/DX2                !
 ! D56   D(31,11,30,62)         63.1682         estimate D2E/DX2                !
 ! D57   D(31,11,30,63)        -56.0895         estimate D2E/DX2                !
 ! D58   D(30,11,31,12)         -0.3735         estimate D2E/DX2                !
 ! D59   D(30,11,31,32)        179.4154         estimate D2E/DX2                !
 ! D60   D(3,13,14,35)        -177.6491         estimate D2E/DX2                !
 ! D61   D(3,13,14,36)          62.8582         estimate D2E/DX2                !
 ! D62   D(3,13,14,37)         -57.913          estimate D2E/DX2                !
 ! D63   D(33,13,14,35)         60.1669         estimate D2E/DX2                !
 ! D64   D(33,13,14,36)        -59.3259         estimate D2E/DX2                !
 ! D65   D(33,13,14,37)        179.9029         estimate D2E/DX2                !
 ! D66   D(34,13,14,35)        -58.5958         estimate D2E/DX2                !
 ! D67   D(34,13,14,36)       -178.0885         estimate D2E/DX2                !
 ! D68   D(34,13,14,37)         61.1403         estimate D2E/DX2                !
 ! D69   D(3,15,16,40)        -176.7466         estimate D2E/DX2                !
 ! D70   D(3,15,16,41)          63.6558         estimate D2E/DX2                !
 ! D71   D(3,15,16,42)         -57.0504         estimate D2E/DX2                !
 ! D72   D(38,15,16,40)         60.9049         estimate D2E/DX2                !
 ! D73   D(38,15,16,41)        -58.6927         estimate D2E/DX2                !
 ! D74   D(38,15,16,42)       -179.3989         estimate D2E/DX2                !
 ! D75   D(39,15,16,40)        -57.6959         estimate D2E/DX2                !
 ! D76   D(39,15,16,41)       -177.2935         estimate D2E/DX2                !
 ! D77   D(39,15,16,42)         62.0003         estimate D2E/DX2                !
 ! D78   D(3,17,18,45)         -60.4851         estimate D2E/DX2                !
 ! D79   D(3,17,18,46)        -179.7387         estimate D2E/DX2                !
 ! D80   D(3,17,18,47)          61.1053         estimate D2E/DX2                !
 ! D81   D(43,17,18,45)         60.2047         estimate D2E/DX2                !
 ! D82   D(43,17,18,46)        -59.0489         estimate D2E/DX2                !
 ! D83   D(43,17,18,47)       -178.2049         estimate D2E/DX2                !
 ! D84   D(44,17,18,45)        177.8843         estimate D2E/DX2                !
 ! D85   D(44,17,18,46)         58.6308         estimate D2E/DX2                !
 ! D86   D(44,17,18,47)        -60.5252         estimate D2E/DX2                !
 ! D87   D(2,19,20,5)          -65.4074         estimate D2E/DX2                !
 ! D88   D(2,19,20,21)         176.7279         estimate D2E/DX2                !
 ! D89   D(2,19,20,49)          54.9866         estimate D2E/DX2                !
 ! D90   D(4,19,20,5)          174.3196         estimate D2E/DX2                !
 ! D91   D(4,19,20,21)          56.4549         estimate D2E/DX2                !
 ! D92   D(4,19,20,49)         -65.2864         estimate D2E/DX2                !
 ! D93   D(48,19,20,5)          55.3249         estimate D2E/DX2                !
 ! D94   D(48,19,20,21)        -62.5398         estimate D2E/DX2                !
 ! D95   D(48,19,20,49)        175.7189         estimate D2E/DX2                !
 ! D96   D(5,20,21,7)           68.7311         estimate D2E/DX2                !
 ! D97   D(5,20,21,22)        -171.5603         estimate D2E/DX2                !
 ! D98   D(5,20,21,50)         -50.1044         estimate D2E/DX2                !
 ! D99   D(19,20,21,7)        -172.1207         estimate D2E/DX2                !
 ! D100  D(19,20,21,22)        -52.4121         estimate D2E/DX2                !
 ! D101  D(19,20,21,50)         69.0438         estimate D2E/DX2                !
 ! D102  D(49,20,21,7)         -50.961          estimate D2E/DX2                !
 ! D103  D(49,20,21,22)         68.7476         estimate D2E/DX2                !
 ! D104  D(49,20,21,50)       -169.7965         estimate D2E/DX2                !
 ! D105  D(7,21,22,9)          -69.698          estimate D2E/DX2                !
 ! D106  D(7,21,22,23)         171.8009         estimate D2E/DX2                !
 ! D107  D(7,21,22,51)          50.3231         estimate D2E/DX2                !
 ! D108  D(20,21,22,9)         170.6107         estimate D2E/DX2                !
 ! D109  D(20,21,22,23)         52.1096         estimate D2E/DX2                !
 ! D110  D(20,21,22,51)        -69.3682         estimate D2E/DX2                !
 ! D111  D(50,21,22,9)          49.2269         estimate D2E/DX2                !
 ! D112  D(50,21,22,23)        -69.2742         estimate D2E/DX2                !
 ! D113  D(50,21,22,51)        169.2479         estimate D2E/DX2                !
 ! D114  D(9,22,23,4)         -174.9074         estimate D2E/DX2                !
 ! D115  D(9,22,23,30)          63.9828         estimate D2E/DX2                !
 ! D116  D(9,22,23,52)         -54.6234         estimate D2E/DX2                !
 ! D117  D(21,22,23,4)         -56.6709         estimate D2E/DX2                !
 ! D118  D(21,22,23,30)       -177.7808         estimate D2E/DX2                !
 ! D119  D(21,22,23,52)         63.613          estimate D2E/DX2                !
 ! D120  D(51,22,23,4)          65.0541         estimate D2E/DX2                !
 ! D121  D(51,22,23,30)        -56.0557         estimate D2E/DX2                !
 ! D122  D(51,22,23,52)       -174.6619         estimate D2E/DX2                !
 ! D123  D(4,23,30,11)         -64.418          estimate D2E/DX2                !
 ! D124  D(4,23,30,62)          55.5094         estimate D2E/DX2                !
 ! D125  D(4,23,30,63)         174.906          estimate D2E/DX2                !
 ! D126  D(22,23,30,11)         57.0526         estimate D2E/DX2                !
 ! D127  D(22,23,30,62)        176.98           estimate D2E/DX2                !
 ! D128  D(22,23,30,63)        -63.6235         estimate D2E/DX2                !
 ! D129  D(52,23,30,11)        176.9065         estimate D2E/DX2                !
 ! D130  D(52,23,30,62)        -63.1661         estimate D2E/DX2                !
 ! D131  D(52,23,30,63)         56.2305         estimate D2E/DX2                !
 ! D132  D(5,24,25,53)        -171.7806         estimate D2E/DX2                !
 ! D133  D(5,24,25,54)          68.151          estimate D2E/DX2                !
 ! D134  D(5,24,25,55)         -49.6977         estimate D2E/DX2                !
 ! D135  D(6,24,25,53)           8.5981         estimate D2E/DX2                !
 ! D136  D(6,24,25,54)        -111.4704         estimate D2E/DX2                !
 ! D137  D(6,24,25,55)         130.681          estimate D2E/DX2                !
 ! D138  D(7,26,27,56)          57.4666         estimate D2E/DX2                !
 ! D139  D(7,26,27,57)         -60.3079         estimate D2E/DX2                !
 ! D140  D(7,26,27,58)         178.701          estimate D2E/DX2                !
 ! D141  D(8,26,27,56)        -122.5082         estimate D2E/DX2                !
 ! D142  D(8,26,27,57)         119.7173         estimate D2E/DX2                !
 ! D143  D(8,26,27,58)          -1.2738         estimate D2E/DX2                !
 ! D144  D(9,28,29,59)         -57.033          estimate D2E/DX2                !
 ! D145  D(9,28,29,60)        -178.312          estimate D2E/DX2                !
 ! D146  D(9,28,29,61)          60.7851         estimate D2E/DX2                !
 ! D147  D(10,28,29,59)        122.933          estimate D2E/DX2                !
 ! D148  D(10,28,29,60)          1.654          estimate D2E/DX2                !
 ! D149  D(10,28,29,61)       -119.2489         estimate D2E/DX2                !
 ! D150  D(11,31,32,64)        177.4177         estimate D2E/DX2                !
 ! D151  D(11,31,32,65)         56.0564         estimate D2E/DX2                !
 ! D152  D(11,31,32,66)        -61.8459         estimate D2E/DX2                !
 ! D153  D(12,31,32,64)         -2.8004         estimate D2E/DX2                !
 ! D154  D(12,31,32,65)       -124.1618         estimate D2E/DX2                !
 ! D155  D(12,31,32,66)        117.9359         estimate D2E/DX2                !
 --------------------------------------------------------------------------------
 Trust Radius=3.00D-01 FncErr=1.00D-07 GrdErr=1.00D-06
 Number of steps in this run=    353 maximum allowed number of steps=    396.
 GradGradGradGradGradGradGradGradGradGradGradGradGradGradGradGradGradGrad

 Stoichiometry    C20H34AuO9PS
 Framework group  C1[X(C20H34AuO9PS)]
 Deg. of freedom   192
 Full point group                 C1      NOp   1
 Largest Abelian subgroup         C1      NOp   1
 Largest concise Abelian subgroup C1      NOp   1
                         Standard orientation:                         
 ---------------------------------------------------------------------
 Center     Atomic      Atomic             Coordinates (Angstroms)
 Number     Number       Type             X           Y           Z
 ---------------------------------------------------------------------
      1         79           0       -2.573133   -0.490833   -0.341906
      2         16           0       -0.603217   -1.404206   -1.209448
      3         15           0       -4.533752    0.383162    0.472818
      4          8           0        0.840035    0.646400   -0.362786
      5          8           0        1.924437   -2.806243   -0.037864
      6          8           0        2.446166   -3.486778   -2.120337
      7          8           0        4.371347   -1.345537    0.065312
      8          8           0        4.749091   -2.235799    2.099725
      9          8           0        4.023142    1.238591    1.281613
     10          8           0        5.472755    1.965830   -0.281088
     11          8           0        2.099666    3.081972   -0.981003
     12          8           0        1.821672    5.254289   -0.522958
     13          6           0       -5.739975    0.821431   -0.830867
     14          6           0       -6.021537   -0.314833   -1.810739
     15          6           0       -5.428236   -0.759258    1.588663
     16          6           0       -4.611109   -1.186392    2.804430
     17          6           0       -4.249173    1.922747    1.424049
     18          6           0       -5.476403    2.566225    2.062797
     19          6           0        0.679283   -0.740096   -0.124243
     20          6           0        2.019497   -1.434004   -0.395108
     21          6           0        3.111850   -0.812737    0.466300
     22          6           0        3.143234    0.697721    0.300420
     23          6           0        1.740203    1.265889    0.529805
     24          6           0        2.132788   -3.739714   -0.983090
     25          6           0        1.912851   -5.111892   -0.425457
     26          6           0        5.098552   -2.037729    0.962122
     27          6           0        6.378518   -2.513331    0.347467
     28          6           0        5.156935    1.843204    0.876113
     29          6           0        5.945144    2.328426    2.053073
     30          6           0        1.653115    2.761865    0.334858
     31          6           0        2.144148    4.380821   -1.294335
     32          6           0        2.640302    4.589604   -2.692291
     33          1           0       -6.664374    1.155371   -0.345986
     34          1           0       -5.317583    1.685527   -1.356408
     35          1           0       -6.715548    0.022382   -2.586655
     36          1           0       -6.475538   -1.177573   -1.313556
     37          1           0       -5.100864   -0.650599   -2.298920
     38          1           0       -6.367189   -0.279742    1.889291
     39          1           0       -5.694423   -1.631989    0.982595
     40          1           0       -5.173928   -1.910566    3.401160
     41          1           0       -4.372379   -0.337312    3.452701
     42          1           0       -3.669200   -1.655362    2.501220
     43          1           0       -3.763656    2.612673    0.724328
     44          1           0       -3.495984    1.678569    2.181329
     45          1           0       -6.223582    2.850530    1.316190
     46          1           0       -5.179957    3.475149    2.595691
     47          1           0       -5.955203    1.901658    2.788186
     48          1           0        0.395668   -0.898414    0.926305
     49          1           0        2.270354   -1.345399   -1.456559
     50          1           0        2.940640   -1.066524    1.517874
     51          1           0        3.499257    0.966500   -0.697499
     52          1           0        1.441648    1.065729    1.572692
     53          1           0        2.223255   -5.861622   -1.152105
     54          1           0        0.848839   -5.237069   -0.200518
     55          1           0        2.464000   -5.235480    0.510082
     56          1           0        6.944541   -1.659337   -0.035141
     57          1           0        6.157667   -3.166989   -0.501346
     58          1           0        6.967403   -3.051538    1.088914
     59          1           0        5.333075    3.004456    2.656613
     60          1           0        6.843054    2.840750    1.710399
     61          1           0        6.218168    1.479484    2.686700
     62          1           0        0.616422    3.087958    0.461594
     63          1           0        2.272731    3.277333    1.074637
     64          1           0        2.623027    5.651058   -2.936064
     65          1           0        2.017711    4.031548   -3.396952
     66          1           0        3.660816    4.205061   -2.780083
 ---------------------------------------------------------------------
 Rotational constants (GHZ):      0.1309666      0.0537095      0.0436753
 General basis read from cards:  (5D, 7F)
 ======================================================================================================
                                       Pseudopotential Parameters
 ======================================================================================================
  Center     Atomic      Valence      Angular      Power
  Number     Number     Electrons     Momentum     of R      Exponent        Coefficient   SO-Coeffient
 ======================================================================================================
    1         79           19
                                      G and up 
                                                     1      622.6287956      -60.00000000    0.00000000
                                                     2      136.2843607     -555.52923120    0.00000000
                                                     2       33.1549781     -168.00197850    0.00000000
                                                     2        9.9894895      -63.03998750    0.00000000
                                                     2        3.0481312       -4.25166810    0.00000000
                                      S - G
                                                     0      194.7374304        3.00000000    0.00000000
                                                     1      351.5327447       38.60208800    0.00000000
                                                     2      122.3270402      864.83707270    0.00000000
                                                     2       32.0914617      374.99355200    0.00000000
                                                     2        5.2451812      289.79101000    0.00000000
                                                     2        4.4916223     -152.45327730    0.00000000
                                      P - G
                                                     0      420.6158801        2.00000000    0.00000000
                                                     1      109.4417815       73.88856250    0.00000000
                                                     2       34.1714280      326.67298720    0.00000000
                                                     2        5.9879750      126.58145910    0.00000000
                                      D - G
                                                     0      219.2666158        3.00000000    0.00000000
                                                     1      122.7297786       55.67931490    0.00000000
                                                     2       63.1063369      449.19873350    0.00000000
                                                     2       18.3684520      215.02690910    0.00000000
                                                     2        4.4972844       64.08409950    0.00000000
                                      F - G
                                                     0      108.5506037        4.00000000    0.00000000
                                                     1       56.4795527       51.80653350    0.00000000
                                                     2       29.2069159      231.21831130    0.00000000
                                                     2        9.5440543      119.00473860    0.00000000
                                                     2        2.8965118       15.34241880    0.00000000
    2         16
                                   No pseudopotential on this center.
    3         15
                                   No pseudopotential on this center.
    4          8
                                   No pseudopotential on this center.
    5          8
                                   No pseudopotential on this center.
    6          8
                                   No pseudopotential on this center.
    7          8
                                   No pseudopotential on this center.
    8          8
                                   No pseudopotential on this center.
    9          8
                                   No pseudopotential on this center.
   10          8
                                   No pseudopotential on this center.
   11          8
                                   No pseudopotential on this center.
   12          8
                                   No pseudopotential on this center.
   13          6
                                   No pseudopotential on this center.
   14          6
                                   No pseudopotential on this center.
   15          6
                                   No pseudopotential on this center.
   16          6
                                   No pseudopotential on this center.
   17          6
                                   No pseudopotential on this center.
   18          6
                                   No pseudopotential on this center.
   19          6
                                   No pseudopotential on this center.
   20          6
                                   No pseudopotential on this center.
   21          6
                                   No pseudopotential on this center.
   22          6
                                   No pseudopotential on this center.
   23          6
                                   No pseudopotential on this center.
   24          6
                                   No pseudopotential on this center.
   25          6
                                   No pseudopotential on this center.
   26          6
                                   No pseudopotential on this center.
   27          6
                                   No pseudopotential on this center.
   28          6
                                   No pseudopotential on this center.
   29          6
                                   No pseudopotential on this center.
   30          6
                                   No pseudopotential on this center.
   31          6
                                   No pseudopotential on this center.
   32          6
                                   No pseudopotential on this center.
   33          1
                                   No pseudopotential on this center.
   34          1
                                   No pseudopotential on this center.
   35          1
                                   No pseudopotential on this center.
   36          1
                                   No pseudopotential on this center.
   37          1
                                   No pseudopotential on this center.
   38          1
                                   No pseudopotential on this center.
   39          1
                                   No pseudopotential on this center.
   40          1
                                   No pseudopotential on this center.
   41          1
                                   No pseudopotential on this center.
   42          1
                                   No pseudopotential on this center.
   43          1
                                   No pseudopotential on this center.
   44          1
                                   No pseudopotential on this center.
   45          1
                                   No pseudopotential on this center.
   46          1
                                   No pseudopotential on this center.
   47          1
                                   No pseudopotential on this center.
   48          1
                                   No pseudopotential on this center.
   49          1
                                   No pseudopotential on this center.
   50          1
                                   No pseudopotential on this center.
   51          1
                                   No pseudopotential on this center.
   52          1
                                   No pseudopotential on this center.
   53          1
                                   No pseudopotential on this center.
   54          1
                                   No pseudopotential on this center.
   55          1
                                   No pseudopotential on this center.
   56          1
                                   No pseudopotential on this center.
   57          1
                                   No pseudopotential on this center.
   58          1
                                   No pseudopotential on this center.
   59          1
                                   No pseudopotential on this center.
   60          1
                                   No pseudopotential on this center.
   61          1
                                   No pseudopotential on this center.
   62          1
                                   No pseudopotential on this center.
   63          1
                                   No pseudopotential on this center.
   64          1
                                   No pseudopotential on this center.
   65          1
                                   No pseudopotential on this center.
   66          1
                                   No pseudopotential on this center.
 ======================================================================================================
 There are   589 symmetry adapted cartesian basis functions of A   symmetry.
 There are   552 symmetry adapted basis functions of A   symmetry.
   552 basis functions,  1100 primitive gaussians,   589 cartesian basis functions
   138 alpha electrons      138 beta electrons
       nuclear repulsion energy      4222.8103056996 Hartrees.
 NAtoms=   66 NActive=   66 NUniq=   66 SFac= 1.00D+00 NAtFMM=   60 NAOKFM=T Big=T
 Integral buffers will be    131072 words long.
 Raffenetti 2 integral format.
 Two-electron integral symmetry is turned on.
 One-electron integrals computed using PRISM.
   1 Symmetry operations used in ECPInt.
 ECPInt:  NShTT=   21736 NPrTT=  127446 LenC2=   15739 LenP2D=   48574.
 LDataN:  DoStor=T MaxTD1= 7 Len=  274
 NBasis=   552 RedAO= T EigKep=  1.77D-03  NBF=   552
 NBsUse=   552 1.00D-06 EigRej= -1.00D+00 NBFU=   552
 Defaulting to unpruned grid for atomic number  79.
 ExpMin= 2.79D-02 ExpMax= 2.19D+04 ExpMxC= 3.30D+03 IAcc=3 IRadAn=         5 AccDes= 0.00D+00
 Harris functional with IExCor=  402 and IRadAn=       5 diagonalized for initial guess.
 HarFok:  IExCor=  402 AccDes= 0.00D+00 IRadAn=         5 IDoV= 1 UseB2=F ITyADJ=14
 ICtDFT=  3500011 ScaDFX=  1.000000  1.000000  1.000000  1.000000
 Defaulting to unpruned grid for atomic number  79.
 Defaulting to unpruned grid for atomic number  79.
 Defaulting to unpruned grid for atomic number  79.
 Defaulting to unpruned grid for atomic number  79.
 Defaulting to unpruned grid for atomic number  79.
 Defaulting to unpruned grid for atomic number  79.
 Defaulting to unpruned grid for atomic number  79.
 Defaulting to unpruned grid for atomic number  79.
 FoFCou: FMM=F IPFlag=           0 FMFlag=      100000 FMFlg1=        2001
         NFxFlg=           0 DoJE=T BraDBF=F KetDBF=T FulRan=T
         wScrn=  0.000000 ICntrl=     500 IOpCl=  0 I1Cent=   200000004 NGrid=           0
         NMat0=    1 NMatS0=      1 NMatT0=    0 NMatD0=    1 NMtDS0=    0 NMtDT0=    0
 Petite list used in FoFCou.
 Requested convergence on RMS density matrix=1.00D-08 within 128 cycles.
 Requested convergence on MAX density matrix=1.00D-06.
 Requested convergence on             energy=1.00D-06.
 No special actions if energy rises.
 Defaulting to unpruned grid for atomic number  79.
 Defaulting to unpruned grid for atomic number  79.
 Defaulting to unpruned grid for atomic number  79.
 Defaulting to unpruned grid for atomic number  79.
 Defaulting to unpruned grid for atomic number  79.
 Defaulting to unpruned grid for atomic number  79.
 Defaulting to unpruned grid for atomic number  79.
 Defaulting to unpruned grid for atomic number  79.
 SCF Done:  E(RB3LYP) =  -2334.74445728     A.U. after   14 cycles
            NFock= 14  Conv=0.29D-08     -V/T= 2.0460

 **********************************************************************

            Population analysis using the SCF density.

 **********************************************************************

 Orbital symmetries:
       Occupied  (A) (A) (A) (A) (A) (A) (A) (A) (A) (A) (A) (A)
                 (A) (A) (A) (A) (A) (A) (A) (A) (A) (A) (A) (A)
                 (A) (A) (A) (A) (A) (A) (A) (A) (A) (A) (A) (A)
                 (A) (A) (A) (A) (A) (A) (A) (A) (A) (A) (A) (A)
                 (A) (A) (A) (A) (A) (A) (A) (A) (A) (A) (A) (A)
                 (A) (A) (A) (A) (A) (A) (A) (A) (A) (A) (A) (A)
                 (A) (A) (A) (A) (A) (A) (A) (A) (A) (A) (A) (A)
                 (A) (A) (A) (A) (A) (A) (A) (A) (A) (A) (A) (A)
                 (A) (A) (A) (A) (A) (A) (A) (A) (A) (A) (A) (A)
                 (A) (A) (A) (A) (A) (A) (A) (A) (A) (A) (A) (A)
                 (A) (A) (A) (A) (A) (A) (A) (A) (A) (A) (A) (A)
                 (A) (A) (A) (A) (A) (A)
       Virtual   (A) (A) (A) (A) (A) (A) (A) (A) (A) (A) (A) (A)
                 (A) (A) (A) (A) (A) (A) (A) (A) (A) (A) (A) (A)
                 (A) (A) (A) (A) (A) (A) (A) (A) (A) (A) (A) (A)
                 (A) (A) (A) (A) (A) (A) (A) (A) (A) (A) (A) (A)
                 (A) (A) (A) (A) (A) (A) (A) (A) (A) (A) (A) (A)
                 (A) (A) (A) (A) (A) (A) (A) (A) (A) (A) (A) (A)
                 (A) (A) (A) (A) (A) (A) (A) (A) (A) (A) (A) (A)
                 (A) (A) (A) (A) (A) (A) (A) (A) (A) (A) (A) (A)
                 (A) (A) (A) (A) (A) (A) (A) (A) (A) (A) (A) (A)
                 (A) (A) (A) (A) (A) (A) (A) (A) (A) (A) (A) (A)
                 (A) (A) (A) (A) (A) (A) (A) (A) (A) (A) (A) (A)
                 (A) (A) (A) (A) (A) (A) (A) (A) (A) (A) (A) (A)
                 (A) (A) (A) (A) (A) (A) (A) (A) (A) (A) (A) (A)
                 (A) (A) (A) (A) (A) (A) (A) (A) (A) (A) (A) (A)
                 (A) (A) (A) (A) (A) (A) (A) (A) (A) (A) (A) (A)
                 (A) (A) (A) (A) (A) (A) (A) (A) (A) (A) (A) (A)
                 (A) (A) (A) (A) (A) (A) (A) (A) (A) (A) (A) (A)
                 (A) (A) (A) (A) (A) (A) (A) (A) (A) (A) (A) (A)
                 (A) (A) (A) (A) (A) (A) (A) (A) (A) (A) (A) (A)
                 (A) (A) (A) (A) (A) (A) (A) (A) (A) (A) (A) (A)
                 (A) (A) (A) (A) (A) (A) (A) (A) (A) (A) (A) (A)
                 (A) (A) (A) (A) (A) (A) (A) (A) (A) (A) (A) (A)
                 (A) (A) (A) (A) (A) (A) (A) (A) (A) (A) (A) (A)
                 (A) (A) (A) (A) (A) (A) (A) (A) (A) (A) (A) (A)
                 (A) (A) (A) (A) (A) (A) (A) (A) (A) (A) (A) (A)
                 (A) (A) (A) (A) (A) (A) (A) (A) (A) (A) (A) (A)
                 (A) (A) (A) (A) (A) (A) (A) (A) (A) (A) (A) (A)
                 (A) (A) (A) (A) (A) (A) (A) (A) (A) (A) (A) (A)
                 (A) (A) (A) (A) (A) (A) (A) (A) (A) (A) (A) (A)
                 (A) (A) (A) (A) (A) (A) (A) (A) (A) (A) (A) (A)
                 (A) (A) (A) (A) (A) (A) (A) (A) (A) (A) (A) (A)
                 (A) (A) (A) (A) (A) (A) (A) (A) (A) (A) (A) (A)
                 (A) (A) (A) (A) (A) (A) (A) (A) (A) (A) (A) (A)
                 (A) (A) (A) (A) (A) (A) (A) (A) (A) (A) (A) (A)
                 (A) (A) (A) (A) (A) (A)
 The electronic state is 1-A.
 Alpha  occ. eigenvalues --  -88.80717 -77.12028 -19.18783 -19.18160 -19.18005
 Alpha  occ. eigenvalues --  -19.17441 -19.15034 -19.12980 -19.12492 -19.12091
 Alpha  occ. eigenvalues --  -19.11457 -10.31273 -10.30768 -10.30295 -10.29830
 Alpha  occ. eigenvalues --  -10.24650 -10.24205 -10.23873 -10.23853 -10.23522
 Alpha  occ. eigenvalues --  -10.23298 -10.21669 -10.21558 -10.21512 -10.20449
 Alpha  occ. eigenvalues --  -10.19822 -10.19665 -10.18666 -10.18061 -10.17655
 Alpha  occ. eigenvalues --  -10.17354  -7.88409  -6.60146  -5.84821  -5.84343
 Alpha  occ. eigenvalues --   -5.83940  -4.76287  -4.76276  -4.76046  -4.16384
 Alpha  occ. eigenvalues --   -2.31008  -2.28976  -2.28794  -1.11165  -1.10260
 Alpha  occ. eigenvalues --   -1.10108  -1.09193  -1.05016  -1.01818  -1.01171
 Alpha  occ. eigenvalues --   -1.00603  -1.00195  -0.83355  -0.82125  -0.80921
 Alpha  occ. eigenvalues --   -0.78922  -0.78716  -0.76652  -0.75734  -0.74443
 Alpha  occ. eigenvalues --   -0.73517  -0.71307  -0.69762  -0.68587  -0.65636
 Alpha  occ. eigenvalues --   -0.64892  -0.64599  -0.61960  -0.59565  -0.59264
 Alpha  occ. eigenvalues --   -0.57323  -0.56688  -0.55335  -0.54405  -0.52031
 Alpha  occ. eigenvalues --   -0.50278  -0.50020  -0.49479  -0.48622  -0.48472
 Alpha  occ. eigenvalues --   -0.48346  -0.48151  -0.47968  -0.47617  -0.47021
 Alpha  occ. eigenvalues --   -0.46809  -0.46605  -0.46177  -0.45720  -0.45294
 Alpha  occ. eigenvalues --   -0.45023  -0.44853  -0.44012  -0.43439  -0.43066
 Alpha  occ. eigenvalues --   -0.42559  -0.41774  -0.41410  -0.41024  -0.40695
 Alpha  occ. eigenvalues --   -0.40437  -0.40410  -0.40099  -0.39827  -0.39300
 Alpha  occ. eigenvalues --   -0.39191  -0.39152  -0.38789  -0.38408  -0.38061
 Alpha  occ. eigenvalues --   -0.37601  -0.37467  -0.36295  -0.36123  -0.35817
 Alpha  occ. eigenvalues --   -0.35439  -0.35133  -0.35113  -0.34030  -0.33745
 Alpha  occ. eigenvalues --   -0.32883  -0.32657  -0.32085  -0.31420  -0.30394
 Alpha  occ. eigenvalues --   -0.29939  -0.29866  -0.29861  -0.29396  -0.27490
 Alpha  occ. eigenvalues --   -0.27183  -0.27085  -0.26790  -0.26204  -0.25863
 Alpha  occ. eigenvalues --   -0.25545  -0.23496  -0.19758
 Alpha virt. eigenvalues --   -0.02366  -0.01183   0.01421   0.01621   0.02060
 Alpha virt. eigenvalues --    0.02367   0.02885   0.03450   0.04750   0.05202
 Alpha virt. eigenvalues --    0.06868   0.08071   0.08666   0.09166   0.09742
 Alpha virt. eigenvalues --    0.09975   0.10422   0.10529   0.10861   0.11720
 Alpha virt. eigenvalues --    0.12039   0.12200   0.12940   0.13244   0.13877
 Alpha virt. eigenvalues --    0.13902   0.14125   0.14629   0.14925   0.14981
 Alpha virt. eigenvalues --    0.15263   0.15479   0.15612   0.15811   0.16158
 Alpha virt. eigenvalues --    0.16531   0.16799   0.16990   0.17300   0.17859
 Alpha virt. eigenvalues --    0.17975   0.18104   0.18308   0.18403   0.18559
 Alpha virt. eigenvalues --    0.18919   0.19450   0.19641   0.19752   0.20007
 Alpha virt. eigenvalues --    0.20816   0.21428   0.22210   0.22465   0.22969
 Alpha virt. eigenvalues --    0.23173   0.23585   0.23789   0.24047   0.24216
 Alpha virt. eigenvalues --    0.24564   0.26892   0.26939   0.28138   0.28771
 Alpha virt. eigenvalues --    0.29460   0.30526   0.30680   0.31153   0.31734
 Alpha virt. eigenvalues --    0.32062   0.32770   0.35757   0.36582   0.36728
 Alpha virt. eigenvalues --    0.37252   0.37971   0.38002   0.39931   0.40388
 Alpha virt. eigenvalues --    0.41413   0.42421   0.43529   0.44162   0.45961
 Alpha virt. eigenvalues --    0.46808   0.47625   0.48999   0.49828   0.50193
 Alpha virt. eigenvalues --    0.51844   0.52713   0.53066   0.53450   0.54673
 Alpha virt. eigenvalues --    0.55210   0.55664   0.55939   0.56111   0.56444
 Alpha virt. eigenvalues --    0.56777   0.56920   0.57316   0.57742   0.57894
 Alpha virt. eigenvalues --    0.58383   0.58413   0.59055   0.59280   0.59476
 Alpha virt. eigenvalues --    0.60074   0.60484   0.60989   0.61212   0.61695
 Alpha virt. eigenvalues --    0.62515   0.63195   0.63499   0.64758   0.64943
 Alpha virt. eigenvalues --    0.65447   0.66416   0.66488   0.67826   0.68070
 Alpha virt. eigenvalues --    0.68603   0.68970   0.69452   0.69661   0.70694
 Alpha virt. eigenvalues --    0.71468   0.71798   0.73098   0.73907   0.74651
 Alpha virt. eigenvalues --    0.75458   0.76475   0.77699   0.78300   0.79260
 Alpha virt. eigenvalues --    0.79632   0.79770   0.80076   0.80874   0.81526
 Alpha virt. eigenvalues --    0.81693   0.82300   0.83239   0.83716   0.84177
 Alpha virt. eigenvalues --    0.84421   0.84671   0.84986   0.85205   0.85632
 Alpha virt. eigenvalues --    0.85810   0.86177   0.86501   0.86938   0.87087
 Alpha virt. eigenvalues --    0.87212   0.87528   0.87789   0.88399   0.88523
 Alpha virt. eigenvalues --    0.89214   0.89449   0.89578   0.90455   0.90665
 Alpha virt. eigenvalues --    0.91161   0.91353   0.91644   0.92059   0.92548
 Alpha virt. eigenvalues --    0.92811   0.93438   0.93865   0.94423   0.94716
 Alpha virt. eigenvalues --    0.95009   0.95309   0.95493   0.95712   0.96410
 Alpha virt. eigenvalues --    0.96604   0.96889   0.97325   0.98609   0.98913
 Alpha virt. eigenvalues --    0.99187   0.99282   1.00079   1.00151   1.00316
 Alpha virt. eigenvalues --    1.01129   1.01332   1.02374   1.03126   1.03962
 Alpha virt. eigenvalues --    1.04018   1.04736   1.05731   1.07509   1.08128
 Alpha virt. eigenvalues --    1.09339   1.11065   1.11617   1.12360   1.12758
 Alpha virt. eigenvalues --    1.14126   1.14603   1.14946   1.16101   1.16465
 Alpha virt. eigenvalues --    1.17861   1.18640   1.19136   1.20067   1.22316
 Alpha virt. eigenvalues --    1.22951   1.25373   1.26122   1.28763   1.30127
 Alpha virt. eigenvalues --    1.32709   1.35184   1.35658   1.36192   1.38155
 Alpha virt. eigenvalues --    1.38607   1.40402   1.40583   1.43165   1.44463
 Alpha virt. eigenvalues --    1.46779   1.47443   1.47737   1.49463   1.49765
 Alpha virt. eigenvalues --    1.50379   1.51240   1.52138   1.52754   1.53747
 Alpha virt. eigenvalues --    1.53945   1.54558   1.55862   1.56405   1.57886
 Alpha virt. eigenvalues --    1.58803   1.60857   1.62285   1.63901   1.64017
 Alpha virt. eigenvalues --    1.65251   1.66352   1.66901   1.67552   1.68758
 Alpha virt. eigenvalues --    1.69633   1.69878   1.72044   1.73443   1.73972
 Alpha virt. eigenvalues --    1.74374   1.75471   1.77285   1.78463   1.78790
 Alpha virt. eigenvalues --    1.79914   1.80210   1.80835   1.81094   1.81361
 Alpha virt. eigenvalues --    1.81642   1.82360   1.83076   1.83405   1.83658
 Alpha virt. eigenvalues --    1.84086   1.85132   1.85727   1.87489   1.87801
 Alpha virt. eigenvalues --    1.88725   1.89511   1.89741   1.90556   1.90965
 Alpha virt. eigenvalues --    1.91757   1.93833   1.94110   1.94380   1.95118
 Alpha virt. eigenvalues --    1.95609   1.95790   1.96172   1.96424   1.96894
 Alpha virt. eigenvalues --    1.97028   1.97561   1.98688   1.98907   1.99319
 Alpha virt. eigenvalues --    1.99767   2.00110   2.00494   2.00758   2.01101
 Alpha virt. eigenvalues --    2.01146   2.01400   2.01854   2.02624   2.02854
 Alpha virt. eigenvalues --    2.03280   2.03847   2.04602   2.04932   2.05104
 Alpha virt. eigenvalues --    2.05711   2.07328   2.09000   2.09523   2.09761
 Alpha virt. eigenvalues --    2.10879   2.11454   2.12145   2.13412   2.13846
 Alpha virt. eigenvalues --    2.14710   2.15109   2.16437   2.17115   2.18510
 Alpha virt. eigenvalues --    2.18915   2.19900   2.20942   2.21485   2.21697
 Alpha virt. eigenvalues --    2.22534   2.23521   2.23639   2.23819   2.24006
 Alpha virt. eigenvalues --    2.25212   2.25951   2.26198   2.26808   2.27088
 Alpha virt. eigenvalues --    2.27716   2.28275   2.30016   2.30594   2.31184
 Alpha virt. eigenvalues --    2.31977   2.32415   2.32580   2.32753   2.33532
 Alpha virt. eigenvalues --    2.34686   2.37880   2.40375   2.40944   2.41590
 Alpha virt. eigenvalues --    2.42356   2.44656   2.45770   2.45832   2.46908
 Alpha virt. eigenvalues --    2.47267   2.47650   2.52973   2.56342   2.57914
 Alpha virt. eigenvalues --    2.58088   2.59035   2.61776   2.62439   2.63840
 Alpha virt. eigenvalues --    2.64877   2.67212   2.68084   2.69047   2.69918
 Alpha virt. eigenvalues --    2.70342   2.71668   2.72844   2.77558   2.79471
 Alpha virt. eigenvalues --    2.80138   2.82025   2.83500   2.86521   2.88062
 Alpha virt. eigenvalues --    2.88652   2.96527   2.97717   2.98754   2.99707
 Alpha virt. eigenvalues --    3.00337   3.01414   3.07054   3.08159   3.12326
 Alpha virt. eigenvalues --    3.13155   3.18218   3.18680   3.21071   3.22118
 Alpha virt. eigenvalues --   15.59704  15.60445  15.69850  43.15411
          Condensed to atoms (all electrons):
 Mulliken charges:
               1
     1  Au  -0.142209
     2  S   -0.130552
     3  P    0.453954
     4  O   -0.454803
     5  O   -0.453846
     6  O   -0.424955
     7  O   -0.452933
     8  O   -0.428475
     9  O   -0.466887
    10  O   -0.421124
    11  O   -0.430337
    12  O   -0.443945
    13  C   -0.444725
    14  C   -0.472193
    15  C   -0.440987
    16  C   -0.473321
    17  C   -0.453129
    18  C   -0.457542
    19  C   -0.027407
    20  C    0.098092
    21  C    0.079482
    22  C    0.098055
    23  C    0.098279
    24  C    0.585770
    25  C   -0.538455
    26  C    0.561504
    27  C   -0.534920
    28  C    0.564569
    29  C   -0.533776
    30  C   -0.044397
    31  C    0.571276
    32  C   -0.533625
    33  H    0.170531
    34  H    0.189922
    35  H    0.164264
    36  H    0.159866
    37  H    0.210701
    38  H    0.169343
    39  H    0.193493
    40  H    0.164288
    41  H    0.155780
    42  H    0.207501
    43  H    0.197552
    44  H    0.193891
    45  H    0.160170
    46  H    0.169076
    47  H    0.159427
    48  H    0.160151
    49  H    0.203472
    50  H    0.178911
    51  H    0.203171
    52  H    0.126876
    53  H    0.178242
    54  H    0.193884
    55  H    0.179310
    56  H    0.188370
    57  H    0.191575
    58  H    0.178791
    59  H    0.181929
    60  H    0.183948
    61  H    0.189758
    62  H    0.169691
    63  H    0.160759
    64  H    0.177969
    65  H    0.186661
    66  H    0.194289
 Sum of Mulliken charges =   0.00000
 Mulliken charges with hydrogens summed into heavy atoms:
               1
     1  Au  -0.142209
     2  S   -0.130552
     3  P    0.453954
     4  O   -0.454803
     5  O   -0.453846
     6  O   -0.424955
     7  O   -0.452933
     8  O   -0.428475
     9  O   -0.466887
    10  O   -0.421124
    11  O   -0.430337
    12  O   -0.443945
    13  C   -0.084272
    14  C    0.062638
    15  C   -0.078150
    16  C    0.054247
    17  C   -0.061686
    18  C    0.031131
    19  C    0.132744
    20  C    0.301564
    21  C    0.258394
    22  C    0.301226
    23  C    0.225156
    24  C    0.585770
    25  C    0.012982
    26  C    0.561504
    27  C    0.023816
    28  C    0.564569
    29  C    0.021858
    30  C    0.286053
    31  C    0.571276
    32  C    0.025294
 Electronic spatial extent (au):  <R**2>=          22711.5918
 Charge=              0.0000 electrons
 Dipole moment (field-independent basis, Debye):
    X=             -8.2848    Y=              1.6271    Z=              4.8112  Tot=              9.7176
 Quadrupole moment (field-independent basis, Debye-Ang):
   XX=           -166.9181   YY=           -229.8385   ZZ=           -225.0837
   XY=             -6.9699   XZ=             -2.4836   YZ=             -2.9213
 Traceless Quadrupole moment (field-independent basis, Debye-Ang):
   XX=             40.3620   YY=            -22.5584   ZZ=            -17.8036
   XY=             -6.9699   XZ=             -2.4836   YZ=             -2.9213
 Octapole moment (field-independent basis, Debye-Ang**2):
  XXX=           -418.0125  YYY=           -189.3308  ZZZ=            -38.0825  XYY=            -91.8690
  XXY=              4.4396  XXZ=             44.5338  XZZ=           -122.6601  YZZ=             57.7424
  YYZ=            -14.5159  XYZ=             15.3339
 Hexadecapole moment (field-independent basis, Debye-Ang**3):
 XXXX=         -17531.6990 YYYY=          -7980.5571 ZZZZ=          -2484.5852 XXXY=            -97.3892
 XXXZ=            295.1127 YYYX=            -86.8126 YYYZ=           -107.8407 ZZZX=             45.0914
 ZZZY=            -66.4188 XXYY=          -4332.9511 XXZZ=          -3634.3731 YYZZ=          -1648.4005
 XXYZ=            156.9047 YYXZ=             -8.4580 ZZXY=            266.4940
 N-N= 4.222810305700D+03 E-N=-1.389722636881D+04  KE= 2.232048404950D+03
   1 Symmetry operations used in ECPInt.
 ECPInt:  NShTT=   21736 NPrTT=  127446 LenC2=   15739 LenP2D=   48574.
 LDataN:  DoStor=T MaxTD1= 8 Len=  415
 Calling FoFJK, ICntrl=      2127 FMM=T ISym2X=0 I1Cent= 0 IOpClX= 0 NMat=1 NMatS=1 NMatT=0.
 Defaulting to unpruned grid for atomic number  79.
 Defaulting to unpruned grid for atomic number  79.
 Defaulting to unpruned grid for atomic number  79.
 Defaulting to unpruned grid for atomic number  79.
 Defaulting to unpruned grid for atomic number  79.
 Defaulting to unpruned grid for atomic number  79.
 Defaulting to unpruned grid for atomic number  79.
 Defaulting to unpruned grid for atomic number  79.
 ***** Axes restored to original set *****
 -------------------------------------------------------------------
 Center     Atomic                   Forces (Hartrees/Bohr)
 Number     Number              X              Y              Z
 -------------------------------------------------------------------
      1       79           0.005235581   -0.001127303   -0.001207441
      2       16          -0.007787923   -0.003858344   -0.005725514
      3       15           0.010330320   -0.005304106   -0.004797249
      4        8          -0.003899691    0.006381470   -0.003231777
      5        8          -0.002789039    0.001043787    0.013914696
      6        8           0.002693972   -0.000557762   -0.007056908
      7        8           0.001701354    0.003394896   -0.011160491
      8        8          -0.000708096   -0.002571983    0.009843360
      9        8          -0.004667066   -0.000917356    0.012649600
     10        8           0.004322667    0.002295505   -0.008003568
     11        8           0.001958034   -0.012812434   -0.002960321
     12        8          -0.002345086    0.007429808    0.005308313
     13        6          -0.004405498    0.004673120   -0.000424942
     14        6          -0.000736374   -0.001789119   -0.003112198
     15        6          -0.006254234   -0.001312682    0.000840565
     16        6           0.001313912   -0.001952084    0.002826234
     17        6           0.002050128    0.003393844    0.001698110
     18        6          -0.001312669    0.002802821    0.002200415
     19        6          -0.000758258   -0.003379658    0.004753632
     20        6           0.000767444    0.002330596   -0.005961003
     21        6          -0.003887181    0.000132771    0.004836318
     22        6          -0.001018151   -0.001360045   -0.007514159
     23        6           0.001398705    0.001455135    0.002290764
     24        6           0.002140922   -0.001873862   -0.008779295
     25        6          -0.001544244   -0.004487447    0.003068504
     26        6          -0.000180964   -0.001616503    0.004359252
     27        6           0.004287188   -0.001363137   -0.002989209
     28        6           0.003274305    0.001441173   -0.005063938
     29        6           0.002382145    0.001095941    0.004715862
     30        6          -0.002353832    0.002412916    0.003862644
     31        6          -0.000289988    0.007161673   -0.000073930
     32        6           0.002080051   -0.000438230   -0.004945224
     33        1          -0.001716271    0.000936914   -0.000988417
     34        1          -0.000370416    0.000410320   -0.001067704
     35        1          -0.000479317   -0.000265313   -0.000689723
     36        1          -0.000235452   -0.000731329    0.000049218
     37        1          -0.000161482   -0.000215089   -0.000209696
     38        1          -0.001429672   -0.000921837    0.001336173
     39        1          -0.000172999   -0.000834173    0.000337443
     40        1           0.000025080   -0.000453476    0.000821134
     41        1           0.000214312    0.000332737    0.000643489
     42        1           0.000046686   -0.000148101    0.000142595
     43        1           0.000621311    0.000868915    0.000471764
     44        1           0.000422938    0.000821938    0.000336881
     45        1          -0.000701289    0.000366068   -0.000202999
     46        1          -0.000791714    0.000835949    0.000570190
     47        1          -0.000523194   -0.000168764    0.000502003
     48        1           0.000962561    0.000043509    0.000897088
     49        1          -0.000261225   -0.000553539    0.000748764
     50        1           0.000851736   -0.000273517   -0.000624832
     51        1          -0.000521463    0.000182562    0.001238071
     52        1           0.000113015   -0.000675157    0.001548753
     53        1           0.000235752   -0.000359089   -0.000731159
     54        1          -0.000729738   -0.000731248    0.000396793
     55        1           0.000257239   -0.000721056    0.001121804
     56        1           0.000901418    0.000213548   -0.001014888
     57        1           0.000636415   -0.000352646   -0.001126805
     58        1           0.000297931   -0.000436280    0.000735569
     59        1           0.000228161    0.000704367    0.001264018
     60        1           0.000543282    0.000459352   -0.000324540
     61        1           0.000428432   -0.000220839    0.001295636
     62        1           0.000124963    0.000695456    0.000093600
     63        1          -0.000508198    0.000627589    0.000078465
     64        1          -0.000145417    0.000822887    0.000123681
     65        1          -0.000017322   -0.000499207   -0.001190660
     66        1           0.000855503   -0.000484849   -0.000742813
 -------------------------------------------------------------------
 Cartesian Forces:  Max     0.013914696 RMS     0.003269676

 GradGradGradGradGradGradGradGradGradGradGradGradGradGradGradGradGradGrad
 Berny optimization.
 FormGI is forming the generalized inverse of G from B-inverse, IUseBI=4.
 Internal  Forces:  Max     0.014949792 RMS     0.002752474
 Search for a local minimum.
 Step number   1 out of a maximum of  353
 All quantities printed in internal units (Hartrees-Bohrs-Radians)
 Mixed Optimization -- RFO/linear search
 Second derivative matrix not updated -- first step.
 ITU=  0
     Eigenvalues ---    0.00230   0.00230   0.00230   0.00284   0.00414
     Eigenvalues ---    0.00424   0.00424   0.00619   0.00671   0.00707
     Eigenvalues ---    0.00741   0.00762   0.00776   0.00792   0.00800
     Eigenvalues ---    0.00800   0.00801   0.01184   0.01188   0.01194
     Eigenvalues ---    0.01205   0.01348   0.01359   0.01366   0.01412
     Eigenvalues ---    0.01546   0.02388   0.02404   0.02423   0.02527
     Eigenvalues ---    0.03037   0.03362   0.03374   0.03646   0.03650
     Eigenvalues ---    0.04466   0.04720   0.04819   0.04942   0.04948
     Eigenvalues ---    0.04977   0.05020   0.05207   0.05372   0.05382
     Eigenvalues ---    0.05471   0.05476   0.05575   0.05582   0.05640
     Eigenvalues ---    0.05646   0.05676   0.05684   0.05787   0.06021
     Eigenvalues ---    0.06104   0.06531   0.06758   0.07028   0.07216
     Eigenvalues ---    0.07377   0.07413   0.07424   0.07426   0.07559
     Eigenvalues ---    0.07573   0.07577   0.07625   0.07989   0.08605
     Eigenvalues ---    0.08613   0.09024   0.09128   0.10960   0.11227
     Eigenvalues ---    0.11413   0.12345   0.12350   0.12695   0.13694
     Eigenvalues ---    0.14045   0.15469   0.15745   0.16000   0.16000
     Eigenvalues ---    0.16000   0.16000   0.16000   0.16000   0.16000
     Eigenvalues ---    0.16000   0.16000   0.16000   0.16000   0.16000
     Eigenvalues ---    0.16000   0.16000   0.16000   0.16000   0.16000
     Eigenvalues ---    0.16000   0.16000   0.16000   0.16000   0.16309
     Eigenvalues ---    0.17070   0.18540   0.18719   0.19265   0.19920
     Eigenvalues ---    0.21027   0.21941   0.21955   0.21965   0.22018
     Eigenvalues ---    0.23751   0.23862   0.23932   0.25000   0.25000
     Eigenvalues ---    0.25000   0.25000   0.25000   0.25000   0.25000
     Eigenvalues ---    0.25000   0.25000   0.25000   0.25000   0.25000
     Eigenvalues ---    0.25000   0.25610   0.27328   0.29056   0.29250
     Eigenvalues ---    0.29467   0.29739   0.29810   0.29812   0.31237
     Eigenvalues ---    0.32587   0.32648   0.32652   0.32661   0.33342
     Eigenvalues ---    0.33725   0.34091   0.34122   0.34126   0.34132
     Eigenvalues ---    0.34171   0.34199   0.34215   0.34239   0.34258
     Eigenvalues ---    0.34274   0.34285   0.34294   0.34313   0.34322
     Eigenvalues ---    0.34325   0.34331   0.34339   0.34341   0.34344
     Eigenvalues ---    0.34351   0.34360   0.34370   0.34370   0.34394
     Eigenvalues ---    0.34403   0.34419   0.34458   0.34488   0.34900
     Eigenvalues ---    0.34903   0.34914   0.34917   0.41295   0.41575
     Eigenvalues ---    0.41697   0.41773   0.42015   0.42286   0.55579
     Eigenvalues ---    0.55840   0.56164   0.57917   1.00373   1.01649
     Eigenvalues ---    1.01653   1.01974
 RFO step:  Lambda=-7.69033896D-03 EMin= 2.30000000D-03
 Linear search not attempted -- first point.
 Iteration  1 RMS(Cart)=  0.18313554 RMS(Int)=  0.00389306
 Iteration  2 RMS(Cart)=  0.02785175 RMS(Int)=  0.00021355
 Iteration  3 RMS(Cart)=  0.00038034 RMS(Int)=  0.00018977
 Iteration  4 RMS(Cart)=  0.00000021 RMS(Int)=  0.00018977
 Variable       Old X    -DE/DX   Delta X   Delta X   Delta X     New X
                                 (Linear)    (Quad)   (Total)
    R1        4.41867  -0.00072   0.00000  -0.00369  -0.00370   4.41497
    R2        4.33883   0.00460   0.00000   0.02109   0.02111   4.35994
    R3        3.41383   0.00959   0.00000   0.03636   0.03636   3.45019
[...]
 0025369,-0.00001987,0.00005692,0.00003562,-0.00017321,0.00049869,-0.00
 067213,-0.00198329,-0.00780531,-0.00369983,-0.07065623,-0.30719995,0.0
 1071049,-0.00000509,0.00000141,-0.00000338,0.00000232,-0.00000181,0.00
 000092,-0.00000225,0.00000007,-0.00000238,0.00000013,-0.00000065,0.000
 00110,0.00000039,0.00000109,0.00000308,-0.00000469,-0.00000150,0.00000
 397,0.00000126,-0.00000043,-0.00000002,-0.00000192,-0.00000113,0.00000
 166,0.00000130,0.00000029,-0.00000068,0.00000012,0.00000286,-0.0000015
 6,0.00000344,-0.00000470,0.00000328,0.00000189,0.00000064,-0.00000484,
 -0.00000261,-0.00000022,-0.00000141,-0.00000053,0.00000248,0.00000194,
 -0.00000210,-0.00000021,0.00000053,-0.00000060,-0.00001231,0.00000083,
 -0.00000122,0.00000474,0.00000511,0.00000069,-0.00001013,-0.00000479,-
 0.00001567,0.00005134,-0.00000747,-0.00000621,-0.00004618,0.00000570,0
 .00000054,-0.00000324,-0.00000079,-0.00000032,0.00000063,-0.00000034,0
 .00000007,0.00000077,-0.00000035,-0.00000403,0.00000123,0.00000015,-0.
 00000081,0.00000142,0.00000087,0.00000410,-0.00000305,0.00000060,0.000
 00608,-0.00000752,0.00004813,0.00002135,-0.00001628,0.00000649,0.00000
 773,0.00001304,0.00000319,-0.00001685,-0.00009198,0.00019686,-0.000029
 85,-0.00007531,0.00012963,0.07748492,0.33046004,-0.00000711,-0.0000049
 5,0.00000598,0.00001485,0.00001505,0.00001926,-0.00001420,0.00000611,-
 0.00000388,0.00000491,0.00013905,0.00006724,-0.00001893,0.00003346,0.0
 0002312,-0.00000970,-0.00000116,0.00002106,-0.00004934,0.00003783,0.00
 001290,-0.00000979,0.00000510,-0.00000078,-0.00018428,-0.00009123,0.00
 006872,-0.00005091,-0.00009190,0.00014942,0.00226733,0.00257126,-0.006
 54981,0.00035885,-0.00267433,0.00225719,0.00000386,0.00000168,-0.00000
 335,0.00000067,-0.00000224,0.00000169,0.00000361,-0.00000200,0.0000012
 6,-0.00000088,0.00000006,0.00000017,0.00000418,0.00000052,-0.00000171,
 -0.00000080,0.00000152,0.00000172,-0.00000821,-0.00009499,-0.00000974,
 0.00001044,-0.00001391,-0.00002032,-0.00000081,-0.00004025,-0.00001909
 ,0.00012186,0.00004851,0.00001685,0.00005524,-0.00012510,-0.00027508,0
 .00001898,-0.00001592,-0.00003451,-0.00000108,0.00000192,0.00000232,0.
 00002078,-0.00001379,0.00000881,-0.00000309,0.00000400,-0.00000111,0.0
 0021167,0.00016882,-0.00013233,-0.00001251,-0.00001352,0.00001610,0.00
 133074,0.00009882,0.00054544,0.00739355,0.03376510,0.00153696,-0.00212
 837,0.00463147,-0.05068332,0.00000115,-0.00000065,0.00000212,0.0000005
 7,-0.00000097,0.00000011,0.00000158,0.00000033,0.00000071,-0.00000095,
 -0.00000026,0.00000012,-0.00000022,0.00000100,-0.00000201,0.00000156,0
 .00000036,-0.00000097,-0.00000034,0.00000040,-0.00000002,0.00000074,0.
 00000034,0.00000016,-0.00000090,0.00000041,0.00000052,-0.00000014,-0.0
 0000116,-0.00000004,-0.00000373,0.00000271,-0.00000444,-0.00000313,-0.
 00000113,0.00000561,0.00000240,-0.00000040,0.00000022,0.00000010,-0.00
 000067,-0.00000143,0.00000063,-0.00000065,0.,-0.00000076,0.00000730,0.
 00000855,0.00000006,0.00000765,-0.00000015,0.00000334,-0.00000039,0.00
 000646,0.00000080,0.00000830,-0.00004046,-0.00003065,0.00011139,0.0000
 1734,-0.00000023,0.00000148,-0.00000009,-0.00000031,-0.00000076,0.0000
 0005,0.00000030,-0.00000035,0.00000016,-0.00000255,-0.00000019,-0.0000
 0024,-0.00000066,0.00000160,-0.00000084,-0.00000201,-0.00000003,0.0000
 0213,-0.00000482,0.00000875,-0.00002229,-0.00001150,0.00000283,-0.0000
 0383,0.00000537,-0.00000862,0.00000527,0.00011668,0.00026659,-0.000459
 25,0.00002420,0.00008237,-0.00004052,-0.00307152,-0.00954248,0.0518305
 4,0.00000450,-0.00000357,0.00000394,-0.00000091,0.00000765,0.00001383,
 -0.00000408,-0.00001375,-0.00000961,0.00003344,0.00005390,0.00004428,-
 0.00000719,0.00003415,0.00003185,-0.00000616,-0.00000303,0.00003166,-0
 .00000636,0.00003438,0.00001551,-0.00000387,0.00001002,0.00000639,0.00
 030728,0.00020403,-0.00010331,-0.00011640,0.00041461,-0.00043254,-0.00
 008796,0.00020903,0.00104006,-0.00032943,0.00054005,0.00317909,-0.0000
 0142,0.00000289,0.00000269,0.00000186,-0.00000277,-0.00000055,0.000000
 92,0.00000341,0.00000321,0.00000008,-0.00000124,-0.00000005,-0.0000044
 8,-0.00000074,0.00000576,0.00000158,0.00000317,-0.00000072,-0.00000910
 ,-0.00003490,-0.00000571,-0.00001468,-0.00000662,-0.00003106,0.0000136
 0,-0.00001680,0.00000818,-0.00009009,-0.00005787,-0.00013993,-0.000023
 79,-0.00005852,-0.00007403,0.00002037,-0.00001627,-0.00004575,-0.00000
 196,0.00000059,0.00000195,0.00001616,-0.00002406,-0.00000658,-0.000003
 11,-0.00000064,0.00000498,-0.00025451,-0.00024002,0.00052884,0.0000229
 3,-0.00001178,-0.00003258,0.00025057,0.00022898,-0.00017599,0.00774596
 ,0.00104641,0.00573710,-0.21148300,-0.04060370,-0.13213648,-0.00000048
 ,0.00000047,-0.00000011,0.00000021,-0.00000003,-0.00000238,0.00000183,
 0.00000012,0.00000141,-0.00000027,0.00000099,0.00000035,-0.00000080,0.
 00000058,-0.00000156,-0.00000058,-0.00000080,-0.00000028,0.00000097,0.
 00000151,-0.00000100,0.00000043,0.00000050,-0.00000036,-0.00000033,0.0
 0000076,0.00000109,-0.00000043,-0.00000031,-0.00000022,-0.00000204,0.0
 0000041,-0.00000237,-0.00000062,-0.00000061,0.00000155,0.00000002,-0.0
 0000110,0.00000070,-0.00000215,0.00000162,0.00000202,0.00000173,0.0000
 0031,-0.00000133,-0.00000003,0.00000344,0.00000581,0.00000277,0.000009
 72,-0.00000030,0.00000158,-0.00000783,0.00000487,-0.00003259,-0.000002
 66,-0.00001902,-0.00000452,0.00002196,0.00000659,-0.00000069,0.0000016
 3,-0.00000021,-0.00000029,-0.00000100,-0.00000018,0.00000003,-0.000001
 18,0.00000086,-0.00000110,-0.00000325,-0.00000712,-0.00000046,0.000005
 06,-0.00000136,-0.00000061,-0.00000064,0.00000108,-0.00001352,0.000000
 13,0.00001648,0.00001575,-0.00000437,0.00000782,-0.00000660,0.00000903
 ,-0.00001322,0.00000403,0.00001491,-0.00000377,0.00005910,0.00011369,0
 .00008104,-0.00474043,0.00002373,-0.00235212,0.22685655,-0.00001979,-0
 .00000109,0.00000071,0.00002387,0.00000578,-0.00001960,-0.00003561,0.0
 0003474,0.00001772,-0.00001772,0.00001312,-0.00007613,-0.00000795,0.00
 001926,-0.00001827,-0.00000219,0.00001664,-0.00001453,-0.00002553,0.00
 000448,-0.00001753,-0.00000536,0.00000877,-0.00001807,-0.00022433,-0.0
 0015151,0.00004228,0.00013753,-0.00031978,0.00028310,-0.00091058,-0.00
 076728,0.00088932,-0.00102464,0.00180384,0.00188048,0.00000913,-0.0000
 0825,-0.00000791,-0.00000419,0.00000204,0.00000076,0.00000697,-0.00001
 228,-0.00000284,-0.00000037,0.00000302,0.00000148,0.00001391,-0.000002
 92,-0.00000402,-0.00000692,-0.00000320,-0.00000171,-0.00001268,-0.0000
 4092,0.00000484,0.00001264,-0.00001231,0.00003907,0.00000579,-0.000003
 23,-0.00001723,0.00008480,0.00004497,0.00014135,0.00006577,0.00003761,
 0.00007731,0.00000041,-0.00002483,0.00001501,0.00000072,0.00000388,-0.
 00000299,0.00001797,-0.00001682,0.00002310,-0.00000114,0.00000140,-0.0
 0000123,0.00013818,0.00016580,-0.00036820,-0.00002644,0.00002495,0.000
 01751,0.00009071,0.00000114,-0.00036223,0.00967688,-0.00008037,0.00130
 420,-0.04250211,-0.06077431,-0.02923983,0.00000612,-0.00000094,0.00000
 239,-0.00000283,0.00000332,0.00000144,0.00000049,-0.00000012,0.0000007
 6,0.00000024,-0.00000059,-0.00000099,0.00000043,-0.00000225,-0.0000013
 6,0.00000519,0.00000260,-0.00000330,-0.00000268,-0.00000128,0.00000120
 ,0.00000078,0.00000007,-0.00000083,-0.00000053,-0.00000113,-0.00000111
 ,0.00000060,-0.00000165,0.00000167,-0.00000129,0.00000483,0.00000294,0
 .00000095,0.00000104,0.00000048,0.00000274,0.00000224,0.00000098,0.000
 00366,-0.00000453,-0.00000550,-0.00000037,-0.00000131,0.00000156,-0.00
 000020,0.00000835,-0.00000852,0.00000063,-0.00001370,-0.00000386,-0.00
 000291,0.00000838,-0.00000317,0.00004293,-0.00000140,0.00002192,0.0000
 0066,0.00000367,-0.00002078,0.00000002,0.00000056,0.00000058,0.0000005
 8,0.00000035,0.00000030,-0.00000026,0.00000041,-0.00000025,0.00000200,
 0.00000172,0.00000406,0.00000126,-0.00000404,0.00000064,-0.00000109,0.
 00000118,-0.00000148,-0.00001327,-0.00001093,-0.00000074,0.00000313,-0
 .00001075,-0.00000194,0.00001044,0.00000002,0.00000535,0.00002119,0.00
 002902,0.00000298,0.00008960,0.00018050,-0.00005671,-0.02358303,-0.001
 81757,-0.01996308,0.04413378,0.05783269,-0.00000570,0.00000117,0.00000
 283,0.00000764,-0.00001319,0.00000234,0.00001625,0.00001600,-0.0000022
 8,0.00003774,0.00001408,0.00003255,0.00002227,-0.00002389,-0.00000631,
 0.00001165,-0.00000386,-0.00001277,0.00003700,-0.00001199,0.00000025,0
 .00000960,-0.00000279,0.00000445,0.00008318,0.00008830,0.00003777,-0.0
 0000043,0.00004374,0.00003020,0.00157326,-0.00005665,0.00196530,0.0036
 2085,0.00178584,-0.00791436,0.00000135,-0.00000078,-0.00000290,-0.0000
 0062,0.00000198,0.00000144,-0.00000152,-0.00000153,-0.00000272,-0.0000
 0279,-0.00000073,-0.00000102,0.00000522,0.00000408,-0.00001074,-0.0000
 0090,-0.00000527,0.00000199,-0.00000339,0.00004434,0.00000222,-0.00001
 433,0.00001512,-0.00000454,-0.00000983,0.00000969,0.00001411,-0.000092
 42,-0.00005136,-0.00006404,-0.00003498,-0.00009206,0.00021616,-0.00001
 850,0.00002022,0.00002211,-0.00000028,-0.00000207,-0.00000080,-0.00002
 071,0.00001155,-0.00000829,0.00000227,-0.00000319,-0.00000038,-0.00004
 232,-0.00018018,0.00002595,0.00001668,0.00000101,-0.00000012,0.0006432
 4,0.00006349,0.00001534,-0.02976703,-0.00999441,-0.01631658,-0.1283844
 0,-0.02647590,-0.15025190,-0.00000097,-0.00000020,0.00000037,0.0000024
 6,-0.00000166,0.00000413,-0.00000096,0.00000038,-0.00000168,-0.0000009
 8,-0.00000230,0.00000053,0.00000072,0.00000106,0.00000095,-0.00000046,
 0.00000017,0.00000194,-0.00000080,-0.00000154,0.00000160,-0.00000119,-
 0.00000133,0.00000224,0.00000039,0.00000072,-0.00000133,0.00000058,0.0
 0000096,-0.00000158,0.00000181,-0.00000242,0.00000127,0.00000017,-0.00
 000067,-0.00000001,0.00000186,0.00000163,-0.00000027,0.00000201,0.0000
 0036,-0.00000376,-0.00000424,-0.00000144,0.00000252,0.00000314,-0.0000
 0609,0.00000226,-0.00000227,0.00000318,0.00000393,0.00000004,-0.000002
 71,-0.00000194,-0.00002015,-0.00000627,-0.00000018,0.00001002,-0.00008
 139,0.00000019,0.00000015,-0.00000128,-0.00000015,0.00000014,0.0000009
 0,-0.00000046,-0.00000026,-0.00000020,0.00000023,0.00000079,0.00000021
 ,-0.00000064,-0.00000059,-0.00000032,0.00000100,0.00000123,-0.00000054
 ,-0.00000071,0.00006768,0.00000682,0.00005212,-0.00000549,0.00000966,0
 .00000304,-0.00000764,0.00000938,-0.00000033,-0.00003125,0.00002724,-0
 .00009384,-0.00020151,-0.00042947,0.00035801,0.00330633,-0.00026741,0.
 00165164,0.14108889,0.03253187,0.16264891,-0.00001062,0.00000597,-0.00
 000042,0.00001996,0.00000217,-0.00001211,-0.00002070,0.00001735,0.0000
 0929,0.00000875,0.00001608,-0.00005238,-0.00000722,0.00003421,-0.00001
 038,-0.00000797,0.00001628,-0.00000648,-0.00006034,0.00002611,-0.00001
 403,-0.00002118,0.00001722,-0.00001461,-0.00035363,-0.00010286,0.00013
 309,-0.00067500,0.00049541,-0.00002697,0.00056209,-0.00051280,0.000548
 51,-0.00041986,-0.00053669,-0.00145006,0.00000598,-0.00000334,-0.00000
 517,-0.00000238,0.00000053,0.00000102,0.00000444,-0.00000657,-0.000001
 36,-0.00000022,0.00000141,0.00000088,0.00000894,-0.00000033,-0.0000032
 0,-0.00000383,-0.00000291,-0.00000059,-0.00001940,-0.00003882,0.000003
 40,0.00000021,-0.00001966,0.00003612,0.00003420,-0.00002485,-0.0000547
 5,0.00006046,0.00005908,0.00029399,-0.00003885,-0.00000287,0.00019392,
 0.00000965,-0.00003088,0.00000148,-0.00000007,0.00000425,-0.00000222,0
 .00005648,-0.00003939,0.00002008,-0.00000467,0.00000894,-0.00000007,0.
 00027092,-0.00001887,-0.00048241,0.00003768,-0.00013653,-0.00003110,0.
 00027067,-0.00056634,0.00013406,-0.00648768,0.00345344,0.00440210,-0.2
 0937712,0.11765705,0.06088817,0.00000305,-0.00000104,0.00000186,-0.000
 00103,0.00000133,0.00000089,0.00000019,-0.00000011,0.00000054,0.000000
 19,-0.00000024,-0.00000085,0.00000032,-0.00000113,-0.00000074,0.000002
 82,0.00000130,-0.00000205,-0.00000129,-0.00000080,0.00000057,0.0000008
 2,0.00000026,-0.00000072,-0.00000037,-0.00000057,-0.00000037,0.0000002
 0,-0.00000127,0.00000101,-0.00000026,0.00000151,0.00000010,-0.00000030
 ,-0.00000017,0.00000114,0.00000136,0.00000092,0.00000049,0.00000152,-0
 .00000197,-0.00000220,-0.00000018,0.,0.00000063,0.00000178,0.00000630,
 -0.00000691,-0.00000038,-0.00001347,-0.00000440,-0.00000443,0.00001908
 ,-0.00000142,0.00002738,-0.00014224,0.00005712,0.00002034,-0.00004049,
 -0.00001546,0.00000020,0.00000122,0.00000059,0.00000018,0.00000024,0.0
 0000030,0.00000017,0.00000049,-0.00000055,0.00000140,0.00000175,0.0000
 0321,0.00000108,-0.00000355,-0.00000009,-0.00000303,0.00000102,-0.0000
 0028,-0.00002420,0.00002408,-0.00002940,-0.00003149,0.00002013,-0.0000
 1637,-0.00000253,0.00000057,0.00002043,0.00003208,0.00004913,-0.000112
 24,-0.00000852,-0.00002468,-0.00001228,0.00899162,-0.00550254,-0.00399
 445,-0.01810718,0.01382331,0.00810229,0.22525878,-0.00000896,0.0000092
 8,0.00000072,0.00002170,-0.00001399,-0.00001453,-0.00001153,0.00001277
 ,0.00000803,0.00006187,-0.00006339,-0.00004789,0.00002221,0.00004086,-
 0.00000845,0.00000909,0.00002621,-0.00001122,-0.00000979,0.00006095,-0
 .00003641,-0.00001436,0.00004405,-0.00004762,0.00028765,0.00018744,-0.
 00033643,0.00027643,-0.00027669,-0.00067679,-0.00022130,-0.00179663,0.
 00110464,0.00105303,0.00013294,0.00060306,0.00000389,-0.00000378,-0.00
 000364,-0.00000178,0.00000084,0.00000004,0.00000288,-0.00000556,-0.000
 00188,-0.00000021,0.00000151,0.00000078,0.00000691,-0.00000083,-0.0000
 0225,-0.00000292,-0.00000356,-0.00000108,-0.00003796,0.00002677,0.0000
 0678,-0.00004037,-0.00001521,0.00003064,0.00002149,-0.00001830,-0.0000
 3025,-0.00015173,-0.00010226,0.00016287,-0.00015273,0.00013680,0.00035
 433,-0.00000332,-0.00004067,0.00001202,-0.00000160,0.00000485,-0.00000
 610,0.00007207,-0.00009484,0.00005307,-0.00000840,-0.00000281,0.000004
 59,-0.00051472,-0.00016349,0.00109417,0.00012265,-0.00001014,-0.000125
 31,0.00062100,-0.00044765,-0.00054000,-0.00931492,0.00654725,-0.000021
 55,0.11646536,-0.12933018,-0.04238626,0.00000199,-0.00000076,0.0000014
 6,-0.00000040,0.00000062,0.00000049,-0.00000002,-0.00000037,0.00000014
 ,0.00000013,-0.00000005,-0.00000044,0.00000015,-0.00000055,-0.00000035
 ,0.00000204,0.00000101,-0.00000132,-0.00000110,-0.00000054,0.00000061,
 0.00000023,0.00000005,-0.00000053,0.00000004,-0.00000071,-0.00000048,0
 .00000031,-0.00000060,0.00000064,0.00000247,-0.00000073,0.00000251,0.0
 0000108,0.00000141,-0.00000168,-0.00000048,0.00000055,0.00000001,0.000
 00170,-0.00000180,-0.00000075,-0.00000060,0.00000071,0.00000042,0.0000
 0616,-0.00000189,-0.00000850,-0.00000314,-0.00001232,-0.00000398,-0.00
 000347,0.00002072,-0.00000398,-0.00009163,-0.00015446,0.00010132,0.000
 03610,-0.00013159,-0.00001799,-0.00000035,0.00000107,0.00000070,0.0000
 0102,0.00000114,0.,-0.00000093,-0.00000075,0.00000077,0.00001260,-0.00
 000150,0.00000125,0.00000068,-0.00000504,0.00000077,-0.00000138,0.0000
 0570,-0.00000448,0.00000175,-0.00003697,-0.00008787,-0.00001021,0.0000
 2135,-0.00000178,-0.00003647,-0.00003746,-0.00004310,-0.00000834,0.000
 02204,-0.00003600,0.00001765,0.00003485,0.00002625,0.02552854,-0.01565
 194,-0.00932700,-0.00601758,0.00381888,0.00301193,-0.12799015,0.137267
 35,0.00000719,-0.00000619,-0.00000631,-0.00002476,0.00001224,-0.000000
 44,0.00000988,-0.00000930,0.,-0.00015429,0.00003461,0.00000542,-0.0000
 2602,-0.00009112,-0.00004214,-0.00000020,-0.00001567,-0.00003771,0.000
 00264,-0.00011335,-0.00000140,0.00001986,-0.00005782,0.00002529,-0.001
 27791,-0.00071781,0.00078994,0.00040106,-0.00106266,0.00223354,-0.0006
 6935,0.00194531,-0.00059206,-0.00397310,0.00404647,-0.00216566,-0.0000
 0266,0.00000283,0.00000240,0.00000020,0.00000074,0.00000017,-0.0000031
 2,0.00000396,0.00000042,0.00000114,-0.00000077,-0.00000068,-0.00000485
 ,0.00000173,0.00000043,0.00000184,0.00000153,0.00000096,0.00005643,0.0
 0000131,0.00000035,0.00008525,0.00001517,0.00002106,-0.00007292,0.0000
 4191,0.00001884,0.00046201,0.00028387,0.00016903,0.00026240,-0.0002003
 9,-0.00049736,-0.00002573,0.00005682,0.00005768,0.00000560,-0.00000465
 ,0.00000237,-0.00009471,0.00013257,-0.00002521,0.00001033,0.00000202,-
 0.00001527,0.00117151,0.00066495,-0.00314632,-0.00018247,0.00005675,0.
 00017667,-0.00079495,0.00094951,0.00031291,0.02830461,-0.02292265,-0.0
 1108987,0.06329304,-0.04434106,-0.06839653,-0.00000143,0.00000016,-0.0
 0000171,0.00000016,0.00000036,0.00000007,-0.00000137,0.00000027,-0.000
 00056,0.00000054,-0.00000006,-0.00000026,0.00000036,-0.00000045,0.0000
 0165,-0.00000172,-0.00000062,0.00000091,0.00000077,0.00000002,-0.00000
 028,0.00000002,0.00000012,-0.00000002,0.00000005,0.00000003,0.00000030
 ,-0.00000028,0.00000045,0.00000016,-0.00000131,0.00000044,-0.00000224,
 -0.00000101,-0.00000196,0.00000102,0.00000011,-0.00000008,-0.00000022,
 -0.00000143,0.00000124,0.00000078,0.00000060,-0.00000005,-0.00000025,-
 0.00000628,-0.00000078,0.00000301,-0.00000667,-0.00000433,0.00000336,0
 .00000452,-0.00000799,-0.00000422,0.00008984,0.00013073,-0.00003222,-0
 .00004486,0.00017368,0.00001694,0.00000119,-0.00000323,-0.00000011,-0.
 00000056,0.00000006,0.00000016,0.00000118,0.00000272,-0.00000229,-0.00
 000647,0.00000811,0.00001700,0.00000061,-0.00000768,0.00000199,0.00000
 264,-0.00000201,0.00000059,0.00011574,0.00005535,0.00008533,-0.0000491
 6,0.00001008,-0.00000989,0.00004368,0.00001281,0.00007544,-0.00001136,
 -0.00005363,0.00019955,-0.00008515,-0.00012955,0.00003648,-0.00206464,
 0.00092543,0.00002372,-0.01627809,0.01292659,0.00759473,-0.06848818,0.
 04725290,0.07419058\\-0.00000297,0.00000088,0.00000099,0.00000104,-0.0
 0000188,-0.00000083,-0.00000013,0.00000096,0.00000036,0.00000030,0.000
 00134,-0.00000028,0.00000044,-0.00000226,0.00000125,-0.00000086,-0.000
 00079,-0.00000033,0.00000104,0.00000070,-0.00000148,0.00000005,0.00000
 035,0.00000104,0.00000710,0.00000233,-0.00000192,0.00000132,-0.0000004
 0,-0.00000324,-0.00000364,-0.00000475,0.00000250,-0.00000019,-0.000001
 60,-0.00000176,0.00000129,-0.00000024,-0.00000099,-0.00000004,0.000002
 02,-0.00000154,0.00000056,0.00000170,-0.00000215,0.,0.00000009,0.00000
 014,0.00000015,0.00000106,-0.00000125,-0.00000013,0.00000158,-0.000000
 98,-0.00000011,-0.00000146,0.00000065,-0.00000039,0.00000222,0.0000000
 5,-0.00000161,-0.00000217,0.00000240,-0.00000193,-0.00000225,-0.000001
 65,0.00000005,-0.00000050,0.00000114,-0.00000143,0.00000010,0.00000277
 ,-0.00000093,-0.00000045,0.00000089,-0.00000051,-0.00000388,0.00000150
 ,-0.00000048,-0.00000115,0.00000096,-0.00000615,-0.00000525,0.00000762
 ,0.00000152,-0.00000043,0.00000120,0.00000039,0.00000221,-0.00000456,0
 .00000471,0.00000430,0.00000154,0.00000093,-0.00000350,-0.00000049,0.,
 0.00000117,-0.00000141,0.00000088,0.00000146,-0.00000018,0.00000043,0.
 00000117,-0.00000079,-0.00000007,0.00000121,-0.00000066,0.00000005,0.0
 0000064,-0.00000053,-0.00000010,0.00000134,0.00000015,-0.00000086,0.00
 000169,-0.00000165,-0.00000099,0.00000181,-0.00000078,-0.00000032,0.00
 000173,-0.00000080,-0.00000085,0.00000155,-0.00000044,0.00000042,0.000
 00052,-0.00000147,-0.00000006,0.00000181,-0.00000068,0.00000013,0.0000
 0135,-0.00000091,0.00000054,0.00000142,-0.00000152,0.00000071,0.000001
 32,-0.00000084,-0.00000055,0.00000017,-0.00000014,0.00000037,-0.000000
 62,0.00000073,-0.00000016,0.00000030,0.00000044,0.00000038,-0.00000021
 ,0.00000045,-0.00000067,0.00000036,-0.00000001,-0.00000098,-0.00000051
 ,0.00000095,-0.00000153,-0.00000047,0.00000035,-0.00000172,-0.00000049
 ,0.00000097,0.00000012,-0.00000128,0.00000143,-0.00000023,-0.00000112,
 0.00000128,-0.00000074,-0.00000161,0.00000130,0.00000039,-0.00000094,-
 0.00000057,0.00000048,-0.00000168,0.00000034,0.00000006,-0.00000071,0.
 00000073,0.00000050,0.00000037,-0.00000040,0.00000118,-0.00000085,0.00
 000071,0.00000138,-0.00000011,-0.00000036,0.00000109,-0.00000006,0.000
 00012,0.00000133,0.00000039,0.00000062\\\@


 TRUST EVERYONE, BUT CUT THE CARDS.
 Job cpu time:       0 days  9 hours 13 minutes  4.3 seconds.
 File lengths (MBytes):  RWF=   2362 Int=      0 D2E=      0 Chk=     24 Scr=      1
 Normal termination of Gaussian 09 at Fri Oct 14 19:39:38 2022.
