 Entering Gaussian System, Link 0=g09
 Input=AF29-helio.com
 Output=AF29-helio.log
 Initial command:
 /home/scr/programs/g09/l1.exe "/home/scr/helius/Gau-9782.inp" -scrdir="/home/scr/helius/"
 Entering Link 1 = /home/scr/programs/g09/l1.exe PID=      9784.
  
 Copyright (c) 1988,1990,1992,1993,1995,1998,2003,2009,2013,
            Gaussian, Inc.  All Rights Reserved.
  
 This is part of the Gaussian(R) 09 program.  It is based on
 the Gaussian(R) 03 system (copyright 2003, Gaussian, Inc.),
 the Gaussian(R) 98 system (copyright 1998, Gaussian, Inc.),
 the Gaussian(R) 94 system (copyright 1995, Gaussian, Inc.),
 the Gaussian 92(TM) system (copyright 1992, Gaussian, Inc.),
 the Gaussian 90(TM) system (copyright 1990, Gaussian, Inc.),
 the Gaussian 88(TM) system (copyright 1988, Gaussian, Inc.),
 the Gaussian 86(TM) system (copyright 1986, Carnegie Mellon
 University), and the Gaussian 82(TM) system (copyright 1983,
 Carnegie Mellon University). Gaussian is a federally registered
 trademark of Gaussian, Inc.
  
 This software contains proprietary and confidential information,
 including trade secrets, belonging to Gaussian, Inc.
  
 This software is provided under written license and may be
 used, copied, transmitted, or stored only in accord with that
 written license.
  
 The following legend is applicable only to US Government
 contracts under FAR:
  
                    RESTRICTED RIGHTS LEGEND
  
 Use, reproduction and disclosure by the US Government is
 subject to restrictions as set forth in subparagraphs (a)
 and (c) of the Commercial Computer Software - Restricted
 Rights clause in FAR 52.227-19.
  
 Gaussian, Inc.
 340 Quinnipiac St., Bldg. 40, Wallingford CT 06492
  
  
 ---------------------------------------------------------------
 Warning -- This program may not be used in any manner that
 competes with the business of Gaussian, Inc. or will provide
 assistance to any competitor of Gaussian, Inc.  The licensee
 of this program is prohibited from giving any competitor of
 Gaussian, Inc. access to this program.  By using this program,
 the user acknowledges that Gaussian, Inc. is engaged in the
 business of creating and licensing software in the field of
 computational chemistry and represents and warrants to the
 licensee that it is not a competitor of Gaussian, Inc. and that
 it will not use this program in any manner prohibited above.
 ---------------------------------------------------------------
  

 Cite this work as:
 Gaussian 09, Revision D.01,
 M. J. Frisch, G. W. Trucks, H. B. Schlegel, G. E. Scuseria, 
 M. A. Robb, J. R. Cheeseman, G. Scalmani, V. Barone, B. Mennucci, 
 G. A. Petersson, H. Nakatsuji, M. Caricato, X. Li, H. P. Hratchian, 
 A. F. Izmaylov, J. Bloino, G. Zheng, J. L. Sonnenberg, M. Hada, 
 M. Ehara, K. Toyota, R. Fukuda, J. Hasegawa, M. Ishida, T. Nakajima, 
 Y. Honda, O. Kitao, H. Nakai, T. Vreven, J. A. Montgomery, Jr., 
 J. E. Peralta, F. Ogliaro, M. Bearpark, J. J. Heyd, E. Brothers, 
 K. N. Kudin, V. N. Staroverov, T. Keith, R. Kobayashi, J. Normand, 
 K. Raghavachari, A. Rendell, J. C. Burant, S. S. Iyengar, J. Tomasi, 
 M. Cossi, N. Rega, J. M. Millam, M. Klene, J. E. Knox, J. B. Cross, 
 V. Bakken, C. Adamo, J. Jaramillo, R. Gomperts, R. E. Stratmann, 
 O. Yazyev, A. J. Austin, R. Cammi, C. Pomelli, J. W. Ochterski, 
 R. L. Martin, K. Morokuma, V. G. Zakrzewski, G. A. Voth, 
 P. Salvador, J. J. Dannenberg, S. Dapprich, A. D. Daniels, 
 O. Farkas, J. B. Foresman, J. V. Ortiz, J. Cioslowski, 
 and D. J. Fox, Gaussian, Inc., Wallingford CT, 2013.
 
 ******************************************
 Gaussian 09:  EM64L-G09RevD.01 24-Apr-2013
                 3-Apr-2023 
 ******************************************
 %mem=30000MB
 %nprocshared=8
 Will use up to    8 processors via shared memory.
 ----------------------------------------
 # opt freq=noraman b3lyp/gen pseudo=read
 ----------------------------------------
 1/14=-1,18=20,19=15,26=3,38=1/1,3;
 2/9=110,12=2,17=6,18=5,40=1/2;
 3/5=7,11=2,16=1,17=8,25=1,30=1,71=1,74=-5/1,2,3;
 4//1;
 5/5=2,38=5/2;
 6/7=2,8=2,9=2,10=2,28=1/1;
 7//1,2,3,16;
 1/14=-1,18=20,19=15,26=3/3(2);
 2/9=110/2;
 99//99;
 2/9=110/2;
 3/5=7,6=1,11=2,16=1,17=8,25=1,30=1,71=1,74=-5,82=7/1,2,3;
 4/5=5,16=3,69=1/1;
 5/5=2,38=5/2;
 7//1,2,3,16;
 1/14=-1,18=20,19=15,26=3/3(-5);
 2/9=110/2;
 6/7=2,8=2,9=2,10=2,19=2,28=1/1;
 99/9=1/99;
 --
 af
 --
 Symbolic Z-matrix:
 Charge =  0 Multiplicity = 1
 Au                   -2.22073  -0.69801  -0.43734 
 S                    -0.20373  -1.5354   -1.27838 
 P                    -4.1521    0.20272   0.41648 
 O                     1.1233    0.57804  -0.39809 
 O                     2.36321  -2.82023  -0.05283 
 O                     2.9275   -3.48066  -2.13074 
 O                     4.7375   -1.24297   0.08309 
 O                     5.13193  -2.12129   2.11948 
 O                     4.24452   1.31937   1.30208 
 O                     5.69456   2.09637  -0.23607 
 O                     2.27411   3.07903  -0.97659 
 O                     1.83195   5.22585  -0.52764 
 C                     1.02477  -0.81563  -0.16622 
 C                     2.40091  -1.44516  -0.41095 
 C                     3.44807  -0.77348   0.4684 
 C                     3.40811   0.73719   0.30659 
 C                     1.97534   1.23566   0.51444 
 C                     2.61535  -3.74513  -0.99581 
 C                     2.44538  -5.12457  -0.4385 
 C                     5.48579  -1.90246   0.98703 
 C                     6.79523  -2.31298   0.3877 
 C                     5.35917   1.97003   0.9152 
 C                     6.09721   2.50352   2.10378 
 C                     1.81743   2.72673   0.32748 
 C                     2.2352    4.37811  -1.28963 
 C                     2.75304   4.62295  -2.67385 
 H                     0.72734  -0.99083   0.87788 
 H                     2.66737  -1.34578  -1.46771 
 H                     3.27583  -1.03875   1.51694 
 H                     3.76582   1.02557  -0.68525 
 H                     1.6679    1.01388   1.55044 
 H                     2.78768  -5.86223  -1.16317 
 H                     1.38591  -5.29001  -0.21817 
 H                     2.99657  -5.2266    0.49965 
 H                     7.32933  -1.4291    0.02758 
 H                     6.61779  -2.9626   -0.47424 
 H                     7.39504  -2.83534   1.13171 
 H                     5.44971   3.18267   2.66575 
 H                     6.994     3.02787   1.77673 
 H                     6.3665    1.67995   2.77127 
 H                     0.76316   2.99924   0.43562 
 H                     2.39609   3.26618   1.08324 
 H                     2.65494   5.67851  -2.92404 
 H                     2.20144   4.0122   -3.39367 
 H                     3.80455   4.32537  -2.72843 
 C                    -6.01483  -0.39456   2.32965 
 H                    -6.96535  -0.72247   1.88497 
 H                    -5.93662  -0.83774   3.33042 
 H                    -6.03134   0.69158   2.43681 
 C                    -5.14848   0.14269  -2.10664 
 H                    -5.97972  -0.56467  -2.23969 
 H                    -5.23506   0.92225  -2.87411 
 H                    -4.20796  -0.39285  -2.26558 
 C                    -3.49532   2.79321   0.62804 
 H                    -3.6852    3.66992   1.25674 
 H                    -2.41732   2.761     0.40152 
 H                    -4.04264   2.91133  -0.308 
 C                    -3.23386   1.44888   2.60562 
 H                    -2.14548   1.35349   2.4616 
 H                    -3.41956   2.33542   3.2217 
 H                    -3.59034   0.57007   3.1444 
 C                    -4.76631  -2.24953   1.38982 
 H                    -3.88881  -2.50708   0.78995 
 H                    -4.65393  -2.70642   2.38102 
 H                    -5.6563   -2.68287   0.91077 
 C                    -6.38124   1.48995  -0.50532 
 H                    -6.52437   2.26457  -1.2693 
 H                    -7.26473   0.83583  -0.51251 
 H                    -6.3129    1.98015   0.46787 
 N                    -4.87761  -0.80955   1.52611 
 N                    -3.93809   1.6011    1.33911 
 N                    -5.16504   0.74789  -0.78902 
 

 GradGradGradGradGradGradGradGradGradGradGradGradGradGradGradGradGradGrad
 Berny optimization.
 Initialization pass.
                           ----------------------------
                           !    Initial Parameters    !
                           ! (Angstroms and Degrees)  !
 --------------------------                            --------------------------
 ! Name  Definition              Value          Derivative Info.                !
 --------------------------------------------------------------------------------
 ! R1    R(1,2)                  2.3403         estimate D2E/DX2                !
 ! R2    R(1,3)                  2.2958         estimate D2E/DX2                !
 ! R3    R(2,13)                 1.8067         estimate D2E/DX2                !
 ! R4    R(3,70)                 1.668          estimate D2E/DX2                !
 ! R5    R(3,71)                 1.6889         estimate D2E/DX2                !
 ! R6    R(3,72)                 1.6663         estimate D2E/DX2                !
 ! R7    R(4,13)                 1.4163         estimate D2E/DX2                !
 ! R8    R(4,17)                 1.4111         estimate D2E/DX2                !
 ! R9    R(5,14)                 1.4214         estimate D2E/DX2                !
 ! R10   R(5,18)                 1.3447         estimate D2E/DX2                !
 ! R11   R(6,18)                 1.2064         estimate D2E/DX2                !
 ! R12   R(7,15)                 1.4253         estimate D2E/DX2                !
 ! R13   R(7,20)                 1.3461         estimate D2E/DX2                !
 ! R14   R(8,20)                 1.2065         estimate D2E/DX2                !
 ! R15   R(9,16)                 1.4246         estimate D2E/DX2                !
 ! R16   R(9,22)                 1.3474         estimate D2E/DX2                !
 ! R17   R(10,22)                1.2058         estimate D2E/DX2                !
 ! R18   R(11,24)                1.4259         estimate D2E/DX2                !
 ! R19   R(11,25)                1.3368         estimate D2E/DX2                !
 ! R20   R(12,25)                1.2091         estimate D2E/DX2                !
 ! R21   R(13,14)                1.533          estimate D2E/DX2                !
 ! R22   R(13,27)                1.0997         estimate D2E/DX2                !
 ! R23   R(14,15)                1.5235         estimate D2E/DX2                !
 ! R24   R(14,28)                1.0944         estimate D2E/DX2                !
 ! R25   R(15,16)                1.5198         estimate D2E/DX2                !
 ! R26   R(15,29)                1.0952         estimate D2E/DX2                !
 ! R27   R(16,17)                1.5312         estimate D2E/DX2                !
 ! R28   R(16,30)                1.0931         estimate D2E/DX2                !
 ! R29   R(17,24)                1.511          estimate D2E/DX2                !
 ! R30   R(17,31)                1.1032         estimate D2E/DX2                !
 ! R31   R(18,19)                1.4974         estimate D2E/DX2                !
 ! R32   R(19,32)                1.0892         estimate D2E/DX2                !
 ! R33   R(19,33)                1.0947         estimate D2E/DX2                !
 ! R34   R(19,34)                1.0929         estimate D2E/DX2                !
 ! R35   R(20,21)                1.4974         estimate D2E/DX2                !
 ! R36   R(21,35)                1.0937         estimate D2E/DX2                !
 ! R37   R(21,36)                1.0938         estimate D2E/DX2                !
 ! R38   R(21,37)                1.0891         estimate D2E/DX2                !
 ! R39   R(22,23)                1.4973         estimate D2E/DX2                !
 ! R40   R(23,38)                1.0938         estimate D2E/DX2                !
 ! R41   R(23,39)                1.0891         estimate D2E/DX2                !
 ! R42   R(23,40)                1.0938         estimate D2E/DX2                !
 ! R43   R(24,41)                1.0943         estimate D2E/DX2                !
 ! R44   R(24,42)                1.0941         estimate D2E/DX2                !
 ! R45   R(25,26)                1.4981         estimate D2E/DX2                !
 ! R46   R(26,43)                1.0892         estimate D2E/DX2                !
 ! R47   R(26,44)                1.0934         estimate D2E/DX2                !
 ! R48   R(26,45)                1.0942         estimate D2E/DX2                !
 ! R49   R(46,47)                1.0994         estimate D2E/DX2                !
 ! R50   R(46,48)                1.0973         estimate D2E/DX2                !
 ! R51   R(46,49)                1.0915         estimate D2E/DX2                !
 ! R52   R(46,70)                1.453          estimate D2E/DX2                !
 ! R53   R(50,51)                1.0996         estimate D2E/DX2                !
 ! R54   R(50,52)                1.0974         estimate D2E/DX2                !
 ! R55   R(50,53)                1.0939         estimate D2E/DX2                !
 ! R56   R(50,72)                1.4501         estimate D2E/DX2                !
 ! R57   R(54,55)                1.0954         estimate D2E/DX2                !
 ! R58   R(54,56)                1.102          estimate D2E/DX2                !
 ! R59   R(54,57)                1.0907         estimate D2E/DX2                !
 ! R60   R(54,71)                1.457          estimate D2E/DX2                !
 ! R61   R(58,59)                1.102          estimate D2E/DX2                !
 ! R62   R(58,60)                1.0954         estimate D2E/DX2                !
 ! R63   R(58,61)                1.0907         estimate D2E/DX2                !
 ! R64   R(58,71)                1.4571         estimate D2E/DX2                !
 ! R65   R(62,63)                1.0937         estimate D2E/DX2                !
 ! R66   R(62,64)                1.0972         estimate D2E/DX2                !
 ! R67   R(62,65)                1.0997         estimate D2E/DX2                !
 ! R68   R(62,70)                1.4507         estimate D2E/DX2                !
 ! R69   R(66,67)                1.0974         estimate D2E/DX2                !
 ! R70   R(66,68)                1.0993         estimate D2E/DX2                !
 ! R71   R(66,69)                1.0918         estimate D2E/DX2                !
 ! R72   R(66,72)                1.4527         estimate D2E/DX2                !
 ! A1    A(1,2,13)             102.8421         estimate D2E/DX2                !
 ! A2    A(1,3,70)             112.0379         estimate D2E/DX2                !
 ! A3    A(1,3,71)             114.924          estimate D2E/DX2                !
 ! A4    A(1,3,72)             111.7601         estimate D2E/DX2                !
 ! A5    A(70,3,71)            101.1961         estimate D2E/DX2                !
 ! A6    A(70,3,72)            114.5458         estimate D2E/DX2                !
 ! A7    A(71,3,72)            101.616          estimate D2E/DX2                !
 ! A8    A(13,4,17)            113.2501         estimate D2E/DX2                !
 ! A9    A(14,5,18)            118.929          estimate D2E/DX2                !
 ! A10   A(15,7,20)            118.8646         estimate D2E/DX2                !
 ! A11   A(16,9,22)            118.8418         estimate D2E/DX2                !
 ! A12   A(24,11,25)           116.418          estimate D2E/DX2                !
 ! A13   A(2,13,4)             109.7895         estimate D2E/DX2                !
 ! A14   A(2,13,14)            110.3976         estimate D2E/DX2                !
 ! A15   A(2,13,27)            109.6988         estimate D2E/DX2                !
 ! A16   A(4,13,14)            108.3923         estimate D2E/DX2                !
 ! A17   A(4,13,27)            109.3321         estimate D2E/DX2                !
 ! A18   A(14,13,27)           109.2046         estimate D2E/DX2                !
 ! A19   A(5,14,13)            109.4651         estimate D2E/DX2                !
 ! A20   A(5,14,15)            107.417          estimate D2E/DX2                !
 ! A21   A(5,14,28)            109.7303         estimate D2E/DX2                !
 ! A22   A(13,14,15)           110.1105         estimate D2E/DX2                !
 ! A23   A(13,14,28)           109.599          estimate D2E/DX2                !
 ! A24   A(15,14,28)           110.4861         estimate D2E/DX2                !
 ! A25   A(7,15,14)            108.6965         estimate D2E/DX2                !
 ! A26   A(7,15,16)            108.8088         estimate D2E/DX2                !
 ! A27   A(7,15,29)            108.7417         estimate D2E/DX2                !
 ! A28   A(14,15,16)           111.021          estimate D2E/DX2                !
 ! A29   A(14,15,29)           109.7385         estimate D2E/DX2                !
 ! A30   A(16,15,29)           109.7883         estimate D2E/DX2                !
 ! A31   A(9,16,15)            108.4431         estimate D2E/DX2                !
 ! A32   A(9,16,17)            108.7525         estimate D2E/DX2                !
 ! A33   A(9,16,30)            109.5181         estimate D2E/DX2                !
 ! A34   A(15,16,17)           109.4957         estimate D2E/DX2                !
 ! A35   A(15,16,30)           110.5014         estimate D2E/DX2                !
 ! A36   A(17,16,30)           110.0901         estimate D2E/DX2                !
 ! A37   A(4,17,16)            108.9963         estimate D2E/DX2                !
 ! A38   A(4,17,24)            108.4677         estimate D2E/DX2                !
 ! A39   A(4,17,31)            110.2025         estimate D2E/DX2                !
 ! A40   A(16,17,24)           113.7188         estimate D2E/DX2                !
 ! A41   A(16,17,31)           108.8328         estimate D2E/DX2                !
 ! A42   A(24,17,31)           106.586          estimate D2E/DX2                !
 ! A43   A(5,18,6)             123.8786         estimate D2E/DX2                !
 ! A44   A(5,18,19)            110.5691         estimate D2E/DX2                !
 ! A45   A(6,18,19)            125.5513         estimate D2E/DX2                !
 ! A46   A(18,19,32)           109.9121         estimate D2E/DX2                !
 ! A47   A(18,19,33)           108.9037         estimate D2E/DX2                !
 ! A48   A(18,19,34)           110.3801         estimate D2E/DX2                !
 ! A49   A(32,19,33)           109.6146         estimate D2E/DX2                !
 ! A50   A(32,19,34)           110.4502         estimate D2E/DX2                !
 ! A51   A(33,19,34)           107.5314         estimate D2E/DX2                !
 ! A52   A(7,20,8)             123.7901         estimate D2E/DX2                !
 ! A53   A(7,20,21)            110.5878         estimate D2E/DX2                !
 ! A54   A(8,20,21)            125.622          estimate D2E/DX2                !
 ! A55   A(20,21,35)           109.7102         estimate D2E/DX2                !
 ! A56   A(20,21,36)           109.6549         estimate D2E/DX2                !
 ! A57   A(20,21,37)           109.8561         estimate D2E/DX2                !
 ! A58   A(35,21,36)           107.4408         estimate D2E/DX2                !
 ! A59   A(35,21,37)           110.0952         estimate D2E/DX2                !
 ! A60   A(36,21,37)           110.0479         estimate D2E/DX2                !
 ! A61   A(9,22,10)            123.7011         estimate D2E/DX2                !
 ! A62   A(9,22,23)            110.6024         estimate D2E/DX2                !
 ! A63   A(10,22,23)           125.6961         estimate D2E/DX2                !
 ! A64   A(22,23,38)           109.7115         estimate D2E/DX2                !
 ! A65   A(22,23,39)           109.8174         estimate D2E/DX2                !
 ! A66   A(22,23,40)           109.725          estimate D2E/DX2                !
 ! A67   A(38,23,39)           110.0482         estimate D2E/DX2                !
 ! A68   A(38,23,40)           107.4421         estimate D2E/DX2                !
 ! A69   A(39,23,40)           110.0625         estimate D2E/DX2                !
 ! A70   A(11,24,17)           108.8739         estimate D2E/DX2                !
 ! A71   A(11,24,41)           109.7191         estimate D2E/DX2                !
 ! A72   A(11,24,42)           109.9091         estimate D2E/DX2                !
 ! A73   A(17,24,41)           109.5243         estimate D2E/DX2                !
 ! A74   A(17,24,42)           110.2311         estimate D2E/DX2                !
 ! A75   A(41,24,42)           108.5728         estimate D2E/DX2                !
 ! A76   A(11,25,12)           122.9206         estimate D2E/DX2                !
 ! A77   A(11,25,26)           111.4159         estimate D2E/DX2                !
 ! A78   A(12,25,26)           125.6629         estimate D2E/DX2                !
 ! A79   A(25,26,43)           109.8461         estimate D2E/DX2                !
 ! A80   A(25,26,44)           110.0376         estimate D2E/DX2                !
 ! A81   A(25,26,45)           109.502          estimate D2E/DX2                !
 ! A82   A(43,26,44)           110.1625         estimate D2E/DX2                !
 ! A83   A(43,26,45)           109.7947         estimate D2E/DX2                !
 ! A84   A(44,26,45)           107.4618         estimate D2E/DX2                !
 ! A85   A(47,46,48)           108.0621         estimate D2E/DX2                !
 ! A86   A(47,46,49)           108.8688         estimate D2E/DX2                !
 ! A87   A(47,46,70)           111.5802         estimate D2E/DX2                !
 ! A88   A(48,46,49)           108.2661         estimate D2E/DX2                !
 ! A89   A(48,46,70)           109.4657         estimate D2E/DX2                !
 ! A90   A(49,46,70)           110.5073         estimate D2E/DX2                !
 ! A91   A(51,50,52)           108.2244         estimate D2E/DX2                !
 ! A92   A(51,50,53)           108.5087         estimate D2E/DX2                !
 ! A93   A(51,50,72)           111.7042         estimate D2E/DX2                !
 ! A94   A(52,50,53)           108.3006         estimate D2E/DX2                !
 ! A95   A(52,50,72)           109.7613         estimate D2E/DX2                !
 ! A96   A(53,50,72)           110.2529         estimate D2E/DX2                !
 ! A97   A(55,54,56)           108.1152         estimate D2E/DX2                !
 ! A98   A(55,54,57)           108.596          estimate D2E/DX2                !
 ! A99   A(55,54,71)           108.788          estimate D2E/DX2                !
 ! A100  A(56,54,57)           108.5193         estimate D2E/DX2                !
 ! A101  A(56,54,71)           111.9423         estimate D2E/DX2                !
 ! A102  A(57,54,71)           110.7899         estimate D2E/DX2                !
 ! A103  A(59,58,60)           108.1184         estimate D2E/DX2                !
 ! A104  A(59,58,61)           108.518          estimate D2E/DX2                !
 ! A105  A(59,58,71)           111.8872         estimate D2E/DX2                !
 ! A106  A(60,58,61)           108.5936         estimate D2E/DX2                !
 ! A107  A(60,58,71)           108.8057         estimate D2E/DX2                !
 ! A108  A(61,58,71)           110.8279         estimate D2E/DX2                !
 ! A109  A(63,62,64)           108.3759         estimate D2E/DX2                !
 ! A110  A(63,62,65)           108.5177         estimate D2E/DX2                !
 ! A111  A(63,62,70)           110.2934         estimate D2E/DX2                !
 ! A112  A(64,62,65)           108.1999         estimate D2E/DX2                !
 ! A113  A(64,62,70)           109.6535         estimate D2E/DX2                !
 ! A114  A(65,62,70)           111.7141         estimate D2E/DX2                !
 ! A115  A(67,66,68)           108.0988         estimate D2E/DX2                !
 ! A116  A(67,66,69)           108.1671         estimate D2E/DX2                !
 ! A117  A(67,66,72)           109.5007         estimate D2E/DX2                !
 ! A118  A(68,66,69)           108.862          estimate D2E/DX2                !
 ! A119  A(68,66,72)           111.5687         estimate D2E/DX2                !
 ! A120  A(69,66,72)           110.5495         estimate D2E/DX2                !
 ! A121  A(3,70,46)            122.3436         estimate D2E/DX2                !
 ! A122  A(3,70,62)            120.432          estimate D2E/DX2                !
 ! A123  A(46,70,62)           113.2973         estimate D2E/DX2                !
 ! A124  A(3,71,54)            116.7016         estimate D2E/DX2                !
 ! A125  A(3,71,58)            116.7161         estimate D2E/DX2                !
 ! A126  A(54,71,58)           111.2726         estimate D2E/DX2                !
 ! A127  A(3,72,50)            120.9237         estimate D2E/DX2                !
 ! A128  A(3,72,66)            122.3294         estimate D2E/DX2                !
 ! A129  A(50,72,66)           113.5916         estimate D2E/DX2                !
 ! A130  L(2,1,3,12,-1)        177.6739         estimate D2E/DX2                !
 ! A131  L(2,1,3,12,-2)        180.6513         estimate D2E/DX2                !
 ! D1    D(13,2,3,70)          -93.1076         estimate D2E/DX2                !
 ! D2    D(13,2,3,71)           21.3428         estimate D2E/DX2                !
 ! D3    D(13,2,3,72)          135.9036         estimate D2E/DX2                !
 ! D4    D(1,2,13,4)           -70.3458         estimate D2E/DX2                !
 ! D5    D(1,2,13,14)          170.2115         estimate D2E/DX2                !
 ! D6    D(1,2,13,27)           49.8206         estimate D2E/DX2                !
 ! D7    D(1,3,70,46)          171.9677         estimate D2E/DX2                !
 ! D8    D(1,3,70,62)          -31.8373         estimate D2E/DX2                !
 ! D9    D(71,3,70,46)          49.0403         estimate D2E/DX2                !
 ! D10   D(71,3,70,62)        -154.7647         estimate D2E/DX2                !
 ! D11   D(72,3,70,46)         -59.3837         estimate D2E/DX2                !
 ! D12   D(72,3,70,62)          96.8114         estimate D2E/DX2                !
 ! D13   D(1,3,71,54)           67.8463         estimate D2E/DX2                !
 ! D14   D(1,3,71,58)          -67.2101         estimate D2E/DX2                !
 ! D15   D(70,3,71,54)        -171.2391         estimate D2E/DX2                !
 ! D16   D(70,3,71,58)          53.7045         estimate D2E/DX2                !
 ! D17   D(72,3,71,54)         -53.0085         estimate D2E/DX2                !
 ! D18   D(72,3,71,58)         171.9351         estimate D2E/DX2                !
 ! D19   D(1,3,72,50)           28.2526         estimate D2E/DX2                !
 ! D20   D(1,3,72,66)         -173.1168         estimate D2E/DX2                !
 ! D21   D(70,3,72,50)        -100.5354         estimate D2E/DX2                !
 ! D22   D(70,3,72,66)          58.0953         estimate D2E/DX2                !
 ! D23   D(71,3,72,50)         151.2969         estimate D2E/DX2                !
 ! D24   D(71,3,72,66)         -50.0724         estimate D2E/DX2                !
 ! D25   D(17,4,13,2)          174.5922         estimate D2E/DX2                !
 ! D26   D(17,4,13,14)         -64.7448         estimate D2E/DX2                !
 ! D27   D(17,4,13,27)          54.2031         estimate D2E/DX2                !
 ! D28   D(13,4,17,16)          65.4086         estimate D2E/DX2                !
 ! D29   D(13,4,17,24)        -170.2943         estimate D2E/DX2                !
 ! D30   D(13,4,17,31)         -53.9622         estimate D2E/DX2                !
 ! D31   D(18,5,14,13)         119.1175         estimate D2E/DX2                !
 ! D32   D(18,5,14,15)        -121.3398         estimate D2E/DX2                !
 ! D33   D(18,5,14,28)          -1.1951         estimate D2E/DX2                !
 ! D34   D(14,5,18,6)            3.0634         estimate D2E/DX2                !
 ! D35   D(14,5,18,19)        -176.5893         estimate D2E/DX2                !
 ! D36   D(20,7,15,14)        -118.746          estimate D2E/DX2                !
 ! D37   D(20,7,15,16)         120.2351         estimate D2E/DX2                !
 ! D38   D(20,7,15,29)           0.6819         estimate D2E/DX2                !
 ! D39   D(15,7,20,8)           -0.2343         estimate D2E/DX2                !
 ! D40   D(15,7,20,21)         179.8177         estimate D2E/DX2                !
 ! D41   D(22,9,16,15)         113.8651         estimate D2E/DX2                !
 ! D42   D(22,9,16,17)        -127.1388         estimate D2E/DX2                !
 ! D43   D(22,9,16,30)          -6.7931         estimate D2E/DX2                !
 ! D44   D(16,9,22,10)           0.3006         estimate D2E/DX2                !
 ! D45   D(16,9,22,23)        -179.8996         estimate D2E/DX2                !
 ! D46   D(25,11,24,17)       -178.2452         estimate D2E/DX2                !
 ! D47   D(25,11,24,41)         61.9046         estimate D2E/DX2                !
 ! D48   D(25,11,24,42)        -57.4145         estimate D2E/DX2                !
 ! D49   D(24,11,25,12)         -0.3946         estimate D2E/DX2                !
 ! D50   D(24,11,25,26)        179.3406         estimate D2E/DX2                !
 ! D51   D(2,13,14,5)          -65.6415         estimate D2E/DX2                !
 ! D52   D(2,13,14,15)         176.4868         estimate D2E/DX2                !
 ! D53   D(2,13,14,28)          54.7512         estimate D2E/DX2                !
 ! D54   D(4,13,14,5)          174.0735         estimate D2E/DX2                !
 ! D55   D(4,13,14,15)          56.2018         estimate D2E/DX2                !
 ! D56   D(4,13,14,28)         -65.5338         estimate D2E/DX2                !
 ! D57   D(27,13,14,5)          55.0452         estimate D2E/DX2                !
 ! D58   D(27,13,14,15)        -62.8265         estimate D2E/DX2                !
 ! D59   D(27,13,14,28)        175.4379         estimate D2E/DX2                !
 ! D60   D(5,14,15,7)           69.095          estimate D2E/DX2                !
 ! D61   D(5,14,15,16)        -171.2559         estimate D2E/DX2                !
 ! D62   D(5,14,15,29)         -49.7082         estimate D2E/DX2                !
 ! D63   D(13,14,15,7)        -171.7754         estimate D2E/DX2                !
 ! D64   D(13,14,15,16)        -52.1263         estimate D2E/DX2                !
 ! D65   D(13,14,15,29)         69.4214         estimate D2E/DX2                !
 ! D66   D(28,14,15,7)         -50.5685         estimate D2E/DX2                !
 ! D67   D(28,14,15,16)         69.0806         estimate D2E/DX2                !
 ! D68   D(28,14,15,29)       -169.3717         estimate D2E/DX2                !
 ! D69   D(7,15,16,9)          -69.8304         estimate D2E/DX2                !
 ! D70   D(7,15,16,17)         171.643          estimate D2E/DX2                !
 ! D71   D(7,15,16,30)          50.2163         estimate D2E/DX2                !
 ! D72   D(14,15,16,9)         170.5876         estimate D2E/DX2                !
 ! D73   D(14,15,16,17)         52.061          estimate D2E/DX2                !
 ! D74   D(14,15,16,30)        -69.3657         estimate D2E/DX2                !
 ! D75   D(29,15,16,9)          49.069          estimate D2E/DX2                !
 ! D76   D(29,15,16,17)        -69.4575         estimate D2E/DX2                !
 ! D77   D(29,15,16,30)        169.1158         estimate D2E/DX2                !
 ! D78   D(9,16,17,4)         -175.2049         estimate D2E/DX2                !
 ! D79   D(9,16,17,24)          63.6521         estimate D2E/DX2                !
 ! D80   D(9,16,17,31)         -54.9862         estimate D2E/DX2                !
 ! D81   D(15,16,17,4)         -56.8706         estimate D2E/DX2                !
 ! D82   D(15,16,17,24)       -178.0137         estimate D2E/DX2                !
 ! D83   D(15,16,17,31)         63.3481         estimate D2E/DX2                !
 ! D84   D(30,16,17,4)          64.8038         estimate D2E/DX2                !
 ! D85   D(30,16,17,24)        -56.3392         estimate D2E/DX2                !
 ! D86   D(30,16,17,31)       -174.9775         estimate D2E/DX2                !
 ! D87   D(4,17,24,11)         -64.5722         estimate D2E/DX2                !
 ! D88   D(4,17,24,41)          55.3987         estimate D2E/DX2                !
 ! D89   D(4,17,24,42)         174.7949         estimate D2E/DX2                !
 ! D90   D(16,17,24,11)         56.8658         estimate D2E/DX2                !
 ! D91   D(16,17,24,41)        176.8368         estimate D2E/DX2                !
 ! D92   D(16,17,24,42)        -63.767          estimate D2E/DX2                !
 ! D93   D(31,17,24,11)        176.7838         estimate D2E/DX2                !
 ! D94   D(31,17,24,41)        -63.2452         estimate D2E/DX2                !
 ! D95   D(31,17,24,42)         56.151          estimate D2E/DX2                !
 ! D96   D(5,18,19,32)        -171.9524         estimate D2E/DX2                !
 ! D97   D(5,18,19,33)          67.9524         estimate D2E/DX2                !
 ! D98   D(5,18,19,34)         -49.8798         estimate D2E/DX2                !
 ! D99   D(6,18,19,32)           8.402          estimate D2E/DX2                !
 ! D100  D(6,18,19,33)        -111.6932         estimate D2E/DX2                !
 ! D101  D(6,18,19,34)         130.4746         estimate D2E/DX2                !
 ! D102  D(7,20,21,35)          58.2176         estimate D2E/DX2                !
 ! D103  D(7,20,21,36)         -59.5591         estimate D2E/DX2                !
 ! D104  D(7,20,21,37)         179.3762         estimate D2E/DX2                !
 ! D105  D(8,20,21,35)        -121.7292         estimate D2E/DX2                !
 ! D106  D(8,20,21,36)         120.4941         estimate D2E/DX2                !
 ! D107  D(8,20,21,37)          -0.5706         estimate D2E/DX2                !
 ! D108  D(9,22,23,38)         -58.8288         estimate D2E/DX2                !
 ! D109  D(9,22,23,39)        -179.9054         estimate D2E/DX2                !
 ! D110  D(9,22,23,40)          58.9918         estimate D2E/DX2                !
 ! D111  D(10,22,23,38)        120.966          estimate D2E/DX2                !
 ! D112  D(10,22,23,39)         -0.1105         estimate D2E/DX2                !
 ! D113  D(10,22,23,40)       -121.2134         estimate D2E/DX2                !
 ! D114  D(11,25,26,43)        176.6508         estimate D2E/DX2                !
 ! D115  D(11,25,26,44)         55.2047         estimate D2E/DX2                !
 ! D116  D(11,25,26,45)        -62.7005         estimate D2E/DX2                !
 ! D117  D(12,25,26,43)         -3.6228         estimate D2E/DX2                !
 ! D118  D(12,25,26,44)       -125.0689         estimate D2E/DX2                !
 ! D119  D(12,25,26,45)        117.0259         estimate D2E/DX2                !
 ! D120  D(47,46,70,3)          96.6659         estimate D2E/DX2                !
 ! D121  D(47,46,70,62)        -61.0678         estimate D2E/DX2                !
 ! D122  D(48,46,70,3)        -143.7679         estimate D2E/DX2                !
 ! D123  D(48,46,70,62)         58.4984         estimate D2E/DX2                !
 ! D124  D(49,46,70,3)         -24.6162         estimate D2E/DX2                !
 ! D125  D(49,46,70,62)        177.6501         estimate D2E/DX2                !
 ! D126  D(51,50,72,3)         100.5971         estimate D2E/DX2                !
 ! D127  D(51,50,72,66)        -59.771          estimate D2E/DX2                !
 ! D128  D(52,50,72,3)        -139.359          estimate D2E/DX2                !
 ! D129  D(52,50,72,66)         60.2729         estimate D2E/DX2                !
 ! D130  D(53,50,72,3)         -20.1369         estimate D2E/DX2                !
 ! D131  D(53,50,72,66)        179.4951         estimate D2E/DX2                !
 ! D132  D(55,54,71,3)         163.1631         estimate D2E/DX2                !
 ! D133  D(55,54,71,58)        -59.4571         estimate D2E/DX2                !
 ! D134  D(56,54,71,3)         -77.4223         estimate D2E/DX2                !
 ! D135  D(56,54,71,58)         59.9575         estimate D2E/DX2                !
 ! D136  D(57,54,71,3)          43.858          estimate D2E/DX2                !
 ! D137  D(57,54,71,58)       -178.7621         estimate D2E/DX2                !
 ! D138  D(59,58,71,3)          77.067          estimate D2E/DX2                !
 ! D139  D(59,58,71,54)        -60.3061         estimate D2E/DX2                !
 ! D140  D(60,58,71,3)        -163.5367         estimate D2E/DX2                !
 ! D141  D(60,58,71,54)         59.0902         estimate D2E/DX2                !
 ! D142  D(61,58,71,3)         -44.2006         estimate D2E/DX2                !
 ! D143  D(61,58,71,54)        178.4263         estimate D2E/DX2                !
 ! D144  D(63,62,70,3)          22.6013         estimate D2E/DX2                !
 ! D145  D(63,62,70,46)       -179.193          estimate D2E/DX2                !
 ! D146  D(64,62,70,3)         141.874          estimate D2E/DX2                !
 ! D147  D(64,62,70,46)        -59.9203         estimate D2E/DX2                !
 ! D148  D(65,62,70,3)         -98.1784         estimate D2E/DX2                !
 ! D149  D(65,62,70,46)         60.0273         estimate D2E/DX2                !
 ! D150  D(67,66,72,3)         142.9133         estimate D2E/DX2                !
 ! D151  D(67,66,72,50)        -57.0301         estimate D2E/DX2                !
 ! D152  D(68,66,72,3)         -97.459          estimate D2E/DX2                !
 ! D153  D(68,66,72,50)         62.5976         estimate D2E/DX2                !
 ! D154  D(69,66,72,3)          23.8357         estimate D2E/DX2                !
 ! D155  D(69,66,72,50)       -176.1076         estimate D2E/DX2                !
 --------------------------------------------------------------------------------
 Trust Radius=3.00D-01 FncErr=1.00D-07 GrdErr=1.00D-06
 Number of steps in this run=    368 maximum allowed number of steps=    432.
 GradGradGradGradGradGradGradGradGradGradGradGradGradGradGradGradGradGrad

 Stoichiometry    C20H37AuN3O9PS
 Framework group  C1[X(C20H37AuN3O9PS)]
 Deg. of freedom   210
 Full point group                 C1      NOp   1
 Largest Abelian subgroup         C1      NOp   1
 Largest concise Abelian subgroup C1      NOp   1
                         Standard orientation:                         
 ---------------------------------------------------------------------
 Center     Atomic      Atomic             Coordinates (Angstroms)
 Number     Number       Type             X           Y           Z
 ---------------------------------------------------------------------
      1         79           0       -2.220727   -0.698010   -0.437337
      2         16           0       -0.203731   -1.535398   -1.278380
      3         15           0       -4.152095    0.202721    0.416476
      4          8           0        1.123301    0.578043   -0.398086
      5          8           0        2.363206   -2.820234   -0.052832
      6          8           0        2.927498   -3.480664   -2.130737
      7          8           0        4.737496   -1.242967    0.083085
      8          8           0        5.131926   -2.121294    2.119478
      9          8           0        4.244519    1.319368    1.302081
     10          8           0        5.694555    2.096365   -0.236066
     11          8           0        2.274113    3.079025   -0.976587
     12          8           0        1.831949    5.225853   -0.527637
     13          6           0        1.024767   -0.815626   -0.166223
     14          6           0        2.400914   -1.445158   -0.410950
     15          6           0        3.448066   -0.773475    0.468397
     16          6           0        3.408109    0.737185    0.306587
     17          6           0        1.975342    1.235663    0.514440
     18          6           0        2.615348   -3.745133   -0.995808
     19          6           0        2.445381   -5.124569   -0.438499
     20          6           0        5.485787   -1.902458    0.987029
     21          6           0        6.795225   -2.312978    0.387696
     22          6           0        5.359172    1.970026    0.915195
     23          6           0        6.097210    2.503519    2.103782
     24          6           0        1.817429    2.726731    0.327482
     25          6           0        2.235195    4.378105   -1.289628
     26          6           0        2.753039    4.622951   -2.673854
     27          1           0        0.727340   -0.990834    0.877875
     28          1           0        2.667365   -1.345777   -1.467708
     29          1           0        3.275833   -1.038745    1.516936
     30          1           0        3.765821    1.025568   -0.685250
     31          1           0        1.667902    1.013883    1.550439
     32          1           0        2.787677   -5.862226   -1.163167
     33          1           0        1.385910   -5.290012   -0.218166
     34          1           0        2.996566   -5.226601    0.499648
     35          1           0        7.329334   -1.429097    0.027581
     36          1           0        6.617787   -2.962596   -0.474242
     37          1           0        7.395044   -2.835344    1.131710
     38          1           0        5.449706    3.182667    2.665748
     39          1           0        6.994001    3.027867    1.776727
     40          1           0        6.366502    1.679954    2.771269
     41          1           0        0.763157    2.999244    0.435618
     42          1           0        2.396089    3.266182    1.083244
     43          1           0        2.654943    5.678509   -2.924040
     44          1           0        2.201440    4.012196   -3.393674
     45          1           0        3.804549    4.325374   -2.728434
     46          6           0       -6.014826   -0.394564    2.329654
     47          1           0       -6.965346   -0.722471    1.884969
     48          1           0       -5.936617   -0.837744    3.330421
     49          1           0       -6.031340    0.691581    2.436811
     50          6           0       -5.148479    0.142689   -2.106642
     51          1           0       -5.979715   -0.564670   -2.239687
     52          1           0       -5.235056    0.922250   -2.874110
     53          1           0       -4.207961   -0.392849   -2.265577
     54          6           0       -3.495321    2.793214    0.628037
     55          1           0       -3.685197    3.669924    1.256735
     56          1           0       -2.417323    2.761002    0.401516
     57          1           0       -4.042640    2.911329   -0.308004
     58          6           0       -3.233856    1.448878    2.605621
     59          1           0       -2.145476    1.353489    2.461601
     60          1           0       -3.419561    2.335416    3.221699
     61          1           0       -3.590336    0.570067    3.144398
     62          6           0       -4.766306   -2.249527    1.389824
     63          1           0       -3.888806   -2.507075    0.789952
     64          1           0       -4.653925   -2.706418    2.381015
     65          1           0       -5.656296   -2.682868    0.910774
     66          6           0       -6.381242    1.489954   -0.505319
     67          1           0       -6.524367    2.264573   -1.269297
     68          1           0       -7.264729    0.835833   -0.512508
     69          1           0       -6.312899    1.980154    0.467869
     70          7           0       -4.877606   -0.809547    1.526111
     71          7           0       -3.938088    1.601097    1.339109
     72          7           0       -5.165035    0.747893   -0.789021
 ---------------------------------------------------------------------
 Rotational constants (GHZ):      0.1227083      0.0485766      0.0399007
 General basis read from cards:  (5D, 7F)
 ======================================================================================================
                                       Pseudopotential Parameters
 ======================================================================================================
  Center     Atomic      Valence      Angular      Power
  Number     Number     Electrons     Momentum     of R      Exponent        Coefficient   SO-Coeffient
 ======================================================================================================
    1         79           19
                                      G and up 
                                                     1      622.6287956      -60.00000000    0.00000000
                                                     2      136.2843607     -555.52923120    0.00000000
                                                     2       33.1549781     -168.00197850    0.00000000
                                                     2        9.9894895      -63.03998750    0.00000000
                                                     2        3.0481312       -4.25166810    0.00000000
                                      S - G
                                                     0      194.7374304        3.00000000    0.00000000
                                                     1      351.5327447       38.60208800    0.00000000
                                                     2      122.3270402      864.83707270    0.00000000
                                                     2       32.0914617      374.99355200    0.00000000
                                                     2        5.2451812      289.79101000    0.00000000
                                                     2        4.4916223     -152.45327730    0.00000000
                                      P - G
                                                     0      420.6158801        2.00000000    0.00000000
                                                     1      109.4417815       73.88856250    0.00000000
                                                     2       34.1714280      326.67298720    0.00000000
                                                     2        5.9879750      126.58145910    0.00000000
                                      D - G
                                                     0      219.2666158        3.00000000    0.00000000
                                                     1      122.7297786       55.67931490    0.00000000
                                                     2       63.1063369      449.19873350    0.00000000
                                                     2       18.3684520      215.02690910    0.00000000
                                                     2        4.4972844       64.08409950    0.00000000
                                      F - G
                                                     0      108.5506037        4.00000000    0.00000000
                                                     1       56.4795527       51.80653350    0.00000000
                                                     2       29.2069159      231.21831130    0.00000000
                                                     2        9.5440543      119.00473860    0.00000000
                                                     2        2.8965118       15.34241880    0.00000000
    2         16
                                   No pseudopotential on this center.
    3         15
                                   No pseudopotential on this center.
    4          8
                                   No pseudopotential on this center.
    5          8
                                   No pseudopotential on this center.
    6          8
                                   No pseudopotential on this center.
    7          8
                                   No pseudopotential on this center.
    8          8
                                   No pseudopotential on this center.
    9          8
                                   No pseudopotential on this center.
   10          8
                                   No pseudopotential on this center.
   11          8
                                   No pseudopotential on this center.
   12          8
                                   No pseudopotential on this center.
   13          6
                                   No pseudopotential on this center.
   14          6
                                   No pseudopotential on this center.
   15          6
                                   No pseudopotential on this center.
   16          6
                                   No pseudopotential on this center.
   17          6
                                   No pseudopotential on this center.
   18          6
                                   No pseudopotential on this center.
   19          6
                                   No pseudopotential on this center.
   20          6
                                   No pseudopotential on this center.
   21          6
                                   No pseudopotential on this center.
   22          6
                                   No pseudopotential on this center.
   23          6
                                   No pseudopotential on this center.
   24          6
                                   No pseudopotential on this center.
   25          6
                                   No pseudopotential on this center.
   26          6
                                   No pseudopotential on this center.
   27          1
                                   No pseudopotential on this center.
   28          1
                                   No pseudopotential on this center.
   29          1
                                   No pseudopotential on this center.
   30          1
                                   No pseudopotential on this center.
   31          1
                                   No pseudopotential on this center.
   32          1
                                   No pseudopotential on this center.
   33          1
                                   No pseudopotential on this center.
   34          1
                                   No pseudopotential on this center.
   35          1
                                   No pseudopotential on this center.
   36          1
                                   No pseudopotential on this center.
   37          1
                                   No pseudopotential on this center.
   38          1
                                   No pseudopotential on this center.
   39          1
                                   No pseudopotential on this center.
   40          1
                                   No pseudopotential on this center.
   41          1
                                   No pseudopotential on this center.
   42          1
                                   No pseudopotential on this center.
   43          1
                                   No pseudopotential on this center.
   44          1
                                   No pseudopotential on this center.
   45          1
                                   No pseudopotential on this center.
   46          6
                                   No pseudopotential on this center.
   47          1
                                   No pseudopotential on this center.
   48          1
                                   No pseudopotential on this center.
   49          1
                                   No pseudopotential on this center.
   50          6
                                   No pseudopotential on this center.
   51          1
                                   No pseudopotential on this center.
   52          1
                                   No pseudopotential on this center.
   53          1
                                   No pseudopotential on this center.
   54          6
                                   No pseudopotential on this center.
   55          1
                                   No pseudopotential on this center.
   56          1
                                   No pseudopotential on this center.
   57          1
                                   No pseudopotential on this center.
   58          6
                                   No pseudopotential on this center.
   59          1
                                   No pseudopotential on this center.
   60          1
                                   No pseudopotential on this center.
   61          1
                                   No pseudopotential on this center.
   62          6
                                   No pseudopotential on this center.
   63          1
                                   No pseudopotential on this center.
   64          1
                                   No pseudopotential on this center.
   65          1
                                   No pseudopotential on this center.
   66          6
                                   No pseudopotential on this center.
   67          1
                                   No pseudopotential on this center.
   68          1
                                   No pseudopotential on this center.
   69          1
                                   No pseudopotential on this center.
   70          7
                                   No pseudopotential on this center.
   71          7
                                   No pseudopotential on this center.
   72          7
                                   No pseudopotential on this center.
 ======================================================================================================
 There are   640 symmetry adapted cartesian basis functions of A   symmetry.
 There are   600 symmetry adapted basis functions of A   symmetry.
   600 basis functions,  1196 primitive gaussians,   640 cartesian basis functions
   150 alpha electrons      150 beta electrons
       nuclear repulsion energy      4934.8629307448 Hartrees.
 NAtoms=   72 NActive=   72 NUniq=   72 SFac= 1.00D+00 NAtFMM=   60 NAOKFM=T Big=T
 Integral buffers will be    131072 words long.
 Raffenetti 2 integral format.
 Two-electron integral symmetry is turned on.
 One-electron integrals computed using PRISM.
   1 Symmetry operations used in ECPInt.
 ECPInt:  NShTT=   25651 NPrTT=  151179 LenC2=   18361 LenP2D=   56323.
 LDataN:  DoStor=T MaxTD1= 7 Len=  274
 NBasis=   600 RedAO= T EigKep=  1.77D-03  NBF=   600
 NBsUse=   600 1.00D-06 EigRej= -1.00D+00 NBFU=   600
 Defaulting to unpruned grid for atomic number  79.
 ExpMin= 2.79D-02 ExpMax= 2.19D+04 ExpMxC= 3.30D+03 IAcc=3 IRadAn=         5 AccDes= 0.00D+00
 Harris functional with IExCor=  402 and IRadAn=       5 diagonalized for initial guess.
 HarFok:  IExCor=  402 AccDes= 0.00D+00 IRadAn=         5 IDoV= 1 UseB2=F ITyADJ=14
 ICtDFT=  3500011 ScaDFX=  1.000000  1.000000  1.000000  1.000000
 Defaulting to unpruned grid for atomic number  79.
 Defaulting to unpruned grid for atomic number  79.
 Defaulting to unpruned grid for atomic number  79.
 Defaulting to unpruned grid for atomic number  79.
 Defaulting to unpruned grid for atomic number  79.
 Defaulting to unpruned grid for atomic number  79.
 Defaulting to unpruned grid for atomic number  79.
 Defaulting to unpruned grid for atomic number  79.
 FoFCou: FMM=F IPFlag=           0 FMFlag=      100000 FMFlg1=        2001
         NFxFlg=           0 DoJE=T BraDBF=F KetDBF=T FulRan=T
         wScrn=  0.000000 ICntrl=     500 IOpCl=  0 I1Cent=   200000004 NGrid=           0
         NMat0=    1 NMatS0=      1 NMatT0=    0 NMatD0=    1 NMtDS0=    0 NMtDT0=    0
 Petite list used in FoFCou.
 Requested convergence on RMS density matrix=1.00D-08 within 128 cycles.
 Requested convergence on MAX density matrix=1.00D-06.
 Requested convergence on             energy=1.00D-06.
 No special actions if energy rises.
 Defaulting to unpruned grid for atomic number  79.
 Defaulting to unpruned grid for atomic number  79.
 Defaulting to unpruned grid for atomic number  79.
 Defaulting to unpruned grid for atomic number  79.
 Defaulting to unpruned grid for atomic number  79.
 Defaulting to unpruned grid for atomic number  79.
 Defaulting to unpruned grid for atomic number  79.
 Defaulting to unpruned grid for atomic number  79.
 SCF Done:  E(RB3LYP) =  -2500.77700101     A.U. after   14 cycles
            NFock= 14  Conv=0.38D-08     -V/T= 2.0433

 **********************************************************************

            Population analysis using the SCF density.

 **********************************************************************

 Orbital symmetries:
       Occupied  (A) (A) (A) (A) (A) (A) (A) (A) (A) (A) (A) (A)
                 (A) (A) (A) (A) (A) (A) (A) (A) (A) (A) (A) (A)
                 (A) (A) (A) (A) (A) (A) (A) (A) (A) (A) (A) (A)
                 (A) (A) (A) (A) (A) (A) (A) (A) (A) (A) (A) (A)
                 (A) (A) (A) (A) (A) (A) (A) (A) (A) (A) (A) (A)
                 (A) (A) (A) (A) (A) (A) (A) (A) (A) (A) (A) (A)
                 (A) (A) (A) (A) (A) (A) (A) (A) (A) (A) (A) (A)
                 (A) (A) (A) (A) (A) (A) (A) (A) (A) (A) (A) (A)
                 (A) (A) (A) (A) (A) (A) (A) (A) (A) (A) (A) (A)
                 (A) (A) (A) (A) (A) (A) (A) (A) (A) (A) (A) (A)
                 (A) (A) (A) (A) (A) (A) (A) (A) (A) (A) (A) (A)
                 (A) (A) (A) (A) (A) (A) (A) (A) (A) (A) (A) (A)
                 (A) (A) (A) (A) (A) (A)
       Virtual   (A) (A) (A) (A) (A) (A) (A) (A) (A) (A) (A) (A)
                 (A) (A) (A) (A) (A) (A) (A) (A) (A) (A) (A) (A)
                 (A) (A) (A) (A) (A) (A) (A) (A) (A) (A) (A) (A)
                 (A) (A) (A) (A) (A) (A) (A) (A) (A) (A) (A) (A)
                 (A) (A) (A) (A) (A) (A) (A) (A) (A) (A) (A) (A)
                 (A) (A) (A) (A) (A) (A) (A) (A) (A) (A) (A) (A)
                 (A) (A) (A) (A) (A) (A) (A) (A) (A) (A) (A) (A)
                 (A) (A) (A) (A) (A) (A) (A) (A) (A) (A) (A) (A)
                 (A) (A) (A) (A) (A) (A) (A) (A) (A) (A) (A) (A)
                 (A) (A) (A) (A) (A) (A) (A) (A) (A) (A) (A) (A)
                 (A) (A) (A) (A) (A) (A) (A) (A) (A) (A) (A) (A)
                 (A) (A) (A) (A) (A) (A) (A) (A) (A) (A) (A) (A)
                 (A) (A) (A) (A) (A) (A) (A) (A) (A) (A) (A) (A)
                 (A) (A) (A) (A) (A) (A) (A) (A) (A) (A) (A) (A)
                 (A) (A) (A) (A) (A) (A) (A) (A) (A) (A) (A) (A)
                 (A) (A) (A) (A) (A) (A) (A) (A) (A) (A) (A) (A)
                 (A) (A) (A) (A) (A) (A) (A) (A) (A) (A) (A) (A)
                 (A) (A) (A) (A) (A) (A) (A) (A) (A) (A) (A) (A)
                 (A) (A) (A) (A) (A) (A) (A) (A) (A) (A) (A) (A)
                 (A) (A) (A) (A) (A) (A) (A) (A) (A) (A) (A) (A)
                 (A) (A) (A) (A) (A) (A) (A) (A) (A) (A) (A) (A)
                 (A) (A) (A) (A) (A) (A) (A) (A) (A) (A) (A) (A)
                 (A) (A) (A) (A) (A) (A) (A) (A) (A) (A) (A) (A)
                 (A) (A) (A) (A) (A) (A) (A) (A) (A) (A) (A) (A)
                 (A) (A) (A) (A) (A) (A) (A) (A) (A) (A) (A) (A)
                 (A) (A) (A) (A) (A) (A) (A) (A) (A) (A) (A) (A)
                 (A) (A) (A) (A) (A) (A) (A) (A) (A) (A) (A) (A)
                 (A) (A) (A) (A) (A) (A) (A) (A) (A) (A) (A) (A)
                 (A) (A) (A) (A) (A) (A) (A) (A) (A) (A) (A) (A)
                 (A) (A) (A) (A) (A) (A) (A) (A) (A) (A) (A) (A)
                 (A) (A) (A) (A) (A) (A) (A) (A) (A) (A) (A) (A)
                 (A) (A) (A) (A) (A) (A) (A) (A) (A) (A) (A) (A)
                 (A) (A) (A) (A) (A) (A) (A) (A) (A) (A) (A) (A)
                 (A) (A) (A) (A) (A) (A) (A) (A) (A) (A) (A) (A)
                 (A) (A) (A) (A) (A) (A) (A) (A) (A) (A) (A) (A)
                 (A) (A) (A) (A) (A) (A) (A) (A) (A) (A) (A) (A)
                 (A) (A) (A) (A) (A) (A) (A) (A) (A) (A) (A) (A)
                 (A) (A) (A) (A) (A) (A)
 The electronic state is 1-A.
 Alpha  occ. eigenvalues --  -88.80604 -77.17053 -19.18797 -19.18138 -19.18081
 Alpha  occ. eigenvalues --  -19.17414 -19.15038 -19.12989 -19.12469 -19.12164
 Alpha  occ. eigenvalues --  -19.11431 -14.35454 -14.35431 -14.35352 -10.31283
 Alpha  occ. eigenvalues --  -10.30747 -10.30366 -10.29805 -10.24607 -10.24235
 Alpha  occ. eigenvalues --  -10.23886 -10.23849 -10.23607 -10.23275 -10.22573
 Alpha  occ. eigenvalues --  -10.22571 -10.21958 -10.21947 -10.21922 -10.21693
 Alpha  occ. eigenvalues --  -10.18683 -10.18038 -10.17713 -10.17332  -7.88295
 Alpha  occ. eigenvalues --   -6.63929  -5.84709  -5.84229  -5.83826  -4.80205
 Alpha  occ. eigenvalues --   -4.80134  -4.79889  -4.16408  -2.31013  -2.29022
 Alpha  occ. eigenvalues --   -2.28822  -1.11167  -1.10312  -1.10112  -1.09166
 Alpha  occ. eigenvalues --   -1.05014  -1.01823  -1.01156  -1.00674  -1.00169
 Alpha  occ. eigenvalues --   -0.97584  -0.93170  -0.92548  -0.82124  -0.80924
 Alpha  occ. eigenvalues --   -0.76683  -0.75723  -0.74460  -0.73928  -0.73506
 Alpha  occ. eigenvalues --   -0.73489  -0.73335  -0.72589  -0.71308  -0.68589
 Alpha  occ. eigenvalues --   -0.65627  -0.64889  -0.64751  -0.61960  -0.59557
 Alpha  occ. eigenvalues --   -0.59268  -0.57487  -0.57183  -0.55359  -0.54426
 Alpha  occ. eigenvalues --   -0.52157  -0.52076  -0.52030  -0.50540  -0.50262
 Alpha  occ. eigenvalues --   -0.49452  -0.48631  -0.48442  -0.48368  -0.48079
 Alpha  occ. eigenvalues --   -0.47981  -0.47632  -0.47162  -0.47030  -0.46831
 Alpha  occ. eigenvalues --   -0.46183  -0.45896  -0.45717  -0.45645  -0.45285
 Alpha  occ. eigenvalues --   -0.45012  -0.44273  -0.43443  -0.43154  -0.42721
 Alpha  occ. eigenvalues --   -0.41906  -0.41816  -0.41410  -0.41064  -0.41039
 Alpha  occ. eigenvalues --   -0.40613  -0.40421  -0.40098  -0.39952  -0.39670
 Alpha  occ. eigenvalues --   -0.39663  -0.39205  -0.39190  -0.38815  -0.38752
 Alpha  occ. eigenvalues --   -0.38656  -0.38263  -0.37620  -0.36500  -0.36180
 Alpha  occ. eigenvalues --   -0.35879  -0.35362  -0.34289  -0.33837  -0.33112
 Alpha  occ. eigenvalues --   -0.32892  -0.32830  -0.32065  -0.30961  -0.30262
 Alpha  occ. eigenvalues --   -0.29996  -0.29841  -0.29544  -0.28693  -0.27553
 Alpha  occ. eigenvalues --   -0.27426  -0.27102  -0.26793  -0.26273  -0.25852
 Alpha  occ. eigenvalues --   -0.25569  -0.24849  -0.24104  -0.23069  -0.19684
 Alpha virt. eigenvalues --   -0.02173  -0.00307   0.01412   0.01945   0.02255
 Alpha virt. eigenvalues --    0.02466   0.02929   0.03670   0.05316   0.05892
 Alpha virt. eigenvalues --    0.07847   0.07900   0.08503   0.09347   0.09755
 Alpha virt. eigenvalues --    0.09932   0.10315   0.11179   0.11603   0.11793
 Alpha virt. eigenvalues --    0.12027   0.12070   0.12315   0.13305   0.13386
 Alpha virt. eigenvalues --    0.13551   0.13960   0.14242   0.14526   0.14790
 Alpha virt. eigenvalues --    0.15001   0.15065   0.15285   0.15523   0.16225
 Alpha virt. eigenvalues --    0.16387   0.16452   0.16773   0.16922   0.17189
 Alpha virt. eigenvalues --    0.17533   0.17726   0.18014   0.18092   0.18210
 Alpha virt. eigenvalues --    0.18380   0.18497   0.18899   0.19373   0.19410
 Alpha virt. eigenvalues --    0.19869   0.20031   0.20421   0.20991   0.21289
 Alpha virt. eigenvalues --    0.21877   0.22446   0.22669   0.23193   0.23251
 Alpha virt. eigenvalues --    0.23644   0.23691   0.24063   0.24096   0.24419
 Alpha virt. eigenvalues --    0.25474   0.26448   0.26906   0.27792   0.28298
 Alpha virt. eigenvalues --    0.29130   0.29554   0.30688   0.31197   0.31588
 Alpha virt. eigenvalues --    0.31989   0.32506   0.33066   0.35314   0.36411
 Alpha virt. eigenvalues --    0.36681   0.37358   0.37926   0.38095   0.39777
 Alpha virt. eigenvalues --    0.41201   0.42277   0.43910   0.44608   0.46197
 Alpha virt. eigenvalues --    0.46554   0.47300   0.47493   0.48212   0.49723
 Alpha virt. eigenvalues --    0.50076   0.50520   0.51329   0.52032   0.52797
 Alpha virt. eigenvalues --    0.53119   0.53996   0.54736   0.55020   0.55746
 Alpha virt. eigenvalues --    0.55913   0.56306   0.56588   0.56901   0.57314
 Alpha virt. eigenvalues --    0.57821   0.58397   0.58521   0.58851   0.59557
 Alpha virt. eigenvalues --    0.59601   0.60113   0.60703   0.61142   0.61447
 Alpha virt. eigenvalues --    0.61718   0.61742   0.61950   0.62943   0.63190
 Alpha virt. eigenvalues --    0.63482   0.65047   0.65520   0.65745   0.66125
 Alpha virt. eigenvalues --    0.66449   0.67807   0.68028   0.68641   0.69084
 Alpha virt. eigenvalues --    0.69366   0.69637   0.69831   0.70648   0.71831
 Alpha virt. eigenvalues --    0.71977   0.72807   0.73656   0.74312   0.75141
 Alpha virt. eigenvalues --    0.75651   0.77345   0.77920   0.78304   0.78373
 Alpha virt. eigenvalues --    0.78724   0.79010   0.79665   0.79861   0.80179
 Alpha virt. eigenvalues --    0.80338   0.80845   0.82049   0.82608   0.82882
 Alpha virt. eigenvalues --    0.83479   0.83762   0.84099   0.84502   0.85287
 Alpha virt. eigenvalues --    0.85534   0.86008   0.86244   0.86265   0.87094
 Alpha virt. eigenvalues --    0.87256   0.87655   0.87753   0.88126   0.88387
 Alpha virt. eigenvalues --    0.89411   0.89706   0.90105   0.90509   0.90877
 Alpha virt. eigenvalues --    0.90940   0.91245   0.91392   0.91732   0.91787
 Alpha virt. eigenvalues --    0.92274   0.92730   0.93015   0.93678   0.94030
 Alpha virt. eigenvalues --    0.94342   0.94847   0.94998   0.95270   0.95501
 Alpha virt. eigenvalues --    0.95760   0.96241   0.96584   0.96738   0.97510
 Alpha virt. eigenvalues --    0.97728   0.98718   0.99323   0.99682   0.99798
 Alpha virt. eigenvalues --    1.00210   1.00555   1.01055   1.01410   1.01966
 Alpha virt. eigenvalues --    1.02291   1.03731   1.03896   1.04859   1.05556
 Alpha virt. eigenvalues --    1.06175   1.06696   1.07606   1.08788   1.09282
 Alpha virt. eigenvalues --    1.11077   1.11341   1.11806   1.11895   1.12797
 Alpha virt. eigenvalues --    1.13737   1.14540   1.14870   1.15715   1.16200
 Alpha virt. eigenvalues --    1.16534   1.17900   1.18709   1.18997   1.20007
 Alpha virt. eigenvalues --    1.22056   1.22229   1.23068   1.24119   1.26474
 Alpha virt. eigenvalues --    1.27410   1.28766   1.29402   1.30265   1.32594
 Alpha virt. eigenvalues --    1.35270   1.35776   1.37790   1.38221   1.38809
 Alpha virt. eigenvalues --    1.40392   1.40567   1.41592   1.42137   1.42815
 Alpha virt. eigenvalues --    1.43112   1.44449   1.45351   1.46779   1.47522
 Alpha virt. eigenvalues --    1.47720   1.49534   1.49839   1.51307   1.52166
 Alpha virt. eigenvalues --    1.53705   1.54485   1.55727   1.55991   1.57913
 Alpha virt. eigenvalues --    1.57977   1.58795   1.60978   1.62060   1.62604
 Alpha virt. eigenvalues --    1.63678   1.63882   1.64331   1.66376   1.66920
 Alpha virt. eigenvalues --    1.67805   1.69656   1.69840   1.72067   1.73890
 Alpha virt. eigenvalues --    1.73987   1.75461   1.77164   1.78260   1.78477
 Alpha virt. eigenvalues --    1.78785   1.80006   1.80197   1.80871   1.81068
 Alpha virt. eigenvalues --    1.81334   1.81841   1.82543   1.82687   1.83403
 Alpha virt. eigenvalues --    1.83979   1.84773   1.85108   1.85152   1.85853
 Alpha virt. eigenvalues --    1.86097   1.87488   1.87825   1.88749   1.89393
 Alpha virt. eigenvalues --    1.89716   1.91044   1.92349   1.93839   1.94316
 Alpha virt. eigenvalues --    1.95131   1.95636   1.95905   1.96449   1.96693
 Alpha virt. eigenvalues --    1.97426   1.98116   1.98383   1.98469   1.98948
 Alpha virt. eigenvalues --    1.99713   2.00030   2.00481   2.00691   2.01070
 Alpha virt. eigenvalues --    2.01153   2.01627   2.01858   2.02035   2.02180
 Alpha virt. eigenvalues --    2.02393   2.02873   2.03837   2.04265   2.04448
 Alpha virt. eigenvalues --    2.04869   2.05131   2.05656   2.06000   2.07047
 Alpha virt. eigenvalues --    2.07534   2.07867   2.08943   2.09129   2.09447
 Alpha virt. eigenvalues --    2.09509   2.10011   2.10630   2.10828   2.11010
 Alpha virt. eigenvalues --    2.11562   2.12805   2.13062   2.13870   2.14403
 Alpha virt. eigenvalues --    2.14979   2.16273   2.16920   2.18487   2.18795
 Alpha virt. eigenvalues --    2.18866   2.19944   2.20365   2.20776   2.21591
 Alpha virt. eigenvalues --    2.21758   2.22146   2.22833   2.22939   2.23323
 Alpha virt. eigenvalues --    2.23633   2.23799   2.24599   2.25776   2.25936
 Alpha virt. eigenvalues --    2.26604   2.27589   2.27903   2.31372   2.32944
 Alpha virt. eigenvalues --    2.34712   2.35533   2.37811   2.40329   2.40914
 Alpha virt. eigenvalues --    2.41582   2.41834   2.42355   2.42514   2.43352
 Alpha virt. eigenvalues --    2.44389   2.44662   2.45772   2.45816   2.46868
 Alpha virt. eigenvalues --    2.47388   2.47637   2.50032   2.53037   2.53563
 Alpha virt. eigenvalues --    2.56514   2.57003   2.57906   2.58846   2.61910
 Alpha virt. eigenvalues --    2.62126   2.63361   2.63833   2.66861   2.68173
 Alpha virt. eigenvalues --    2.68758   2.69250   2.69943   2.70278   2.70436
 Alpha virt. eigenvalues --    2.71712   2.72780   2.73755   2.77634   2.79463
 Alpha virt. eigenvalues --    2.80192   2.80483   2.82036   2.83511   2.86533
 Alpha virt. eigenvalues --    2.88107   2.88680   2.96462   2.97765   2.98693
 Alpha virt. eigenvalues --    2.99721   3.00405   3.01348   3.07039   3.08189
 Alpha virt. eigenvalues --    3.12323   3.13164   3.18208   3.18631   3.21099
 Alpha virt. eigenvalues --    3.22118  15.61410  15.61624  15.72375  43.18310
          Condensed to atoms (all electrons):
 Mulliken charges:
               1
     1  Au  -0.269532
     2  S   -0.132931
     3  P    0.927813
     4  O   -0.455079
     5  O   -0.453969
     6  O   -0.424911
     7  O   -0.452766
     8  O   -0.428559
     9  O   -0.467127
    10  O   -0.421140
    11  O   -0.430119
    12  O   -0.444043
    13  C   -0.027436
    14  C    0.098318
    15  C    0.079271
    16  C    0.098501
    17  C    0.098078
    18  C    0.586110
    19  C   -0.538435
    20  C    0.561446
    21  C   -0.534893
    22  C    0.564853
    23  C   -0.533988
    24  C   -0.044397
    25  C    0.571039
    26  C   -0.533532
    27  H    0.160543
    28  H    0.203332
    29  H    0.179093
    30  H    0.203131
    31  H    0.126170
    32  H    0.178163
    33  H    0.193829
    34  H    0.179314
    35  H    0.188554
    36  H    0.191412
    37  H    0.178734
    38  H    0.182038
    39  H    0.183913
    40  H    0.189721
    41  H    0.167797
    42  H    0.160457
    43  H    0.178072
    44  H    0.187148
    45  H    0.194088
    46  C   -0.320514
    47  H    0.151159
    48  H    0.157611
    49  H    0.177713
    50  C   -0.335485
    51  H    0.151229
    52  H    0.160038
    53  H    0.229956
    54  C   -0.332311
    55  H    0.156659
    56  H    0.175455
    57  H    0.181971
    58  C   -0.330230
    59  H    0.167526
    60  H    0.156830
    61  H    0.181320
    62  C   -0.336175
    63  H    0.230623
    64  H    0.157591
    65  H    0.150019
    66  C   -0.319793
    67  H    0.158806
    68  H    0.151584
    69  H    0.176889
    70  N   -0.494766
    71  N   -0.527628
    72  N   -0.494158
 Sum of Mulliken charges =   0.00000
 Mulliken charges with hydrogens summed into heavy atoms:
               1
     1  Au  -0.269532
     2  S   -0.132931
     3  P    0.927813
     4  O   -0.455079
     5  O   -0.453969
     6  O   -0.424911
     7  O   -0.452766
     8  O   -0.428559
     9  O   -0.467127
    10  O   -0.421140
    11  O   -0.430119
    12  O   -0.444043
    13  C    0.133108
    14  C    0.301650
    15  C    0.258364
    16  C    0.301632
    17  C    0.224248
    18  C    0.586110
    19  C    0.012870
    20  C    0.561446
    21  C    0.023807
    22  C    0.564853
    23  C    0.021684
    24  C    0.283857
    25  C    0.571039
    26  C    0.025775
    46  C    0.165969
    50  C    0.205737
    54  C    0.181774
    58  C    0.175446
    62  C    0.202059
    66  C    0.167486
    70  N   -0.494766
    71  N   -0.527628
    72  N   -0.494158
 Electronic spatial extent (au):  <R**2>=          25399.4656
 Charge=              0.0000 electrons
 Dipole moment (field-independent basis, Debye):
    X=             -8.2908    Y=              1.4470    Z=              4.5603  Tot=              9.5722
 Quadrupole moment (field-independent basis, Debye-Ang):
   XX=           -188.5018   YY=           -245.3886   ZZ=           -241.2567
   XY=             -2.2501   XZ=              1.1110   YZ=             -3.9976
 Traceless Quadrupole moment (field-independent basis, Debye-Ang):
   XX=             36.5472   YY=            -20.3395   ZZ=            -16.2077
   XY=             -2.2501   XZ=              1.1110   YZ=             -3.9976
 Octapole moment (field-independent basis, Debye-Ang**2):
  XXX=           -371.2420  YYY=           -203.1644  ZZZ=            -42.6837  XYY=            -84.0613
  XXY=            -13.8904  XXZ=             34.0423  XZZ=           -126.9285  YZZ=             51.7603
  YYZ=            -13.2874  XYZ=             21.6882
 Hexadecapole moment (field-independent basis, Debye-Ang**3):
 XXXX=         -20103.2904 YYYY=          -8335.8109 ZZZZ=          -2630.9720 XXXY=             -9.8139
 XXXZ=            340.5918 YYYX=            -46.7007 YYYZ=            -96.8967 ZZZX=             37.4001
 ZZZY=            -50.8849 XXYY=          -4796.9943 XXZZ=          -4096.2637 YYZZ=          -1738.8581
 XXYZ=            132.2727 YYXZ=             11.2893 ZZXY=            300.9934
 N-N= 4.934862930745D+03 E-N=-1.570861566744D+04  KE= 2.397021914600D+03
   1 Symmetry operations used in ECPInt.
 ECPInt:  NShTT=   25651 NPrTT=  151179 LenC2=   18361 LenP2D=   56323.
 LDataN:  DoStor=T MaxTD1= 8 Len=  415
 Calling FoFJK, ICntrl=      2127 FMM=T ISym2X=0 I1Cent= 0 IOpClX= 0 NMat=1 NMatS=1 NMatT=0.
 Defaulting to unpruned grid for atomic number  79.
 Defaulting to unpruned grid for atomic number  79.
 Defaulting to unpruned grid for atomic number  79.
 Defaulting to unpruned grid for atomic number  79.
 Defaulting to unpruned grid for atomic number  79.
 Defaulting to unpruned grid for atomic number  79.
 Defaulting to unpruned grid for atomic number  79.
 Defaulting to unpruned grid for atomic number  79.
 ***** Axes restored to original set *****
 -------------------------------------------------------------------
 Center     Atomic                   Forces (Hartrees/Bohr)
 Number     Number              X              Y              Z
 -------------------------------------------------------------------
      1       79           0.005828948   -0.001139327   -0.001013580
      2       16          -0.007447451   -0.004004297   -0.005762613
      3       15           0.016982442   -0.007897781   -0.007859639
      4        8          -0.003990105    0.006516027   -0.003252147
      5        8          -0.002842052    0.001005252    0.013895592
      6        8           0.002754101   -0.000449943   -0.007040010
      7        8           0.001694278    0.003565863   -0.011137452
      8        8          -0.000693691   -0.002617333    0.009828645
      9        8          -0.004902198   -0.001020877    0.012588743
     10        8           0.004413399    0.002409900   -0.007888950
     11        8           0.002886740   -0.012636398   -0.002809333
     12        8          -0.003023174    0.007241728    0.005319360
     13        6          -0.000778729   -0.003837125    0.004638935
     14        6           0.000805590    0.002391290   -0.005958016
     15        6          -0.003919566   -0.000166930    0.004787273
     16        6          -0.000881068   -0.001330584   -0.007528774
     17        6           0.001265249    0.001380139    0.002252731
     18        6           0.002240022   -0.001775947   -0.008764515
     19        6          -0.001369175   -0.004538050    0.003075271
     20        6          -0.000183385   -0.001716955    0.004373777
     21        6           0.004392140   -0.001118172   -0.002938821
     22        6           0.003402561    0.001450165   -0.005036418
     23        6           0.002176251    0.001287966    0.004767078
     24        6          -0.002426328    0.002134645    0.003740754
     25        6          -0.000843132    0.007122056   -0.000231477
     26        6           0.002244175   -0.000274194   -0.004847545
     27        1           0.000931073    0.000106615    0.000933798
     28        1          -0.000212542   -0.000564539    0.000778053
     29        1           0.000786235   -0.000245160   -0.000628038
     30        1          -0.000568507    0.000112084    0.001201310
     31        1           0.000198154   -0.000698618    0.001554979
     32        1           0.000252573   -0.000345782   -0.000735385
     33        1          -0.000700192   -0.000750573    0.000384496
     34        1           0.000277391   -0.000708630    0.001116371
     35        1           0.000908044    0.000269672   -0.001002845
     36        1           0.000672032   -0.000300849   -0.001107088
     37        1           0.000306096   -0.000427987    0.000731340
     38        1           0.000194384    0.000760433    0.001288659
     39        1           0.000538224    0.000466753   -0.000310501
     40        1           0.000394861   -0.000205696    0.001276696
     41        1           0.000141530    0.000771209    0.000078395
     42        1          -0.000553336    0.000642283    0.000088735
     43        1          -0.000209189    0.000810435    0.000121697
     44        1           0.000057781   -0.000503510   -0.001163685
     45        1           0.000910673   -0.000429563   -0.000764121
     46        6          -0.004237702    0.001433221    0.003344372
     47        1          -0.001263768   -0.000247527    0.000360277
     48        1          -0.000730912   -0.000125315    0.000608692
     49        1          -0.000030352   -0.000368657    0.000102251
     50        6           0.000941276   -0.002787075   -0.006025970
     51        1          -0.000704096   -0.000549500   -0.000587396
     52        1          -0.000011235   -0.000094253   -0.000617270
     53        1          -0.000762822    0.000622514   -0.000897263
     54        6           0.002242753    0.005567985   -0.002898424
     55        1           0.000039922    0.000744184    0.000033483
     56        1           0.000036037    0.000384900   -0.000589714
     57        1           0.000791151    0.000094219    0.000276420
     58        6           0.002764652   -0.000428907    0.005266095
     59        1           0.000417888   -0.000196905    0.000496945
     60        1           0.000224173    0.000344562    0.000642889
     61        1           0.000642744    0.000288159   -0.000120905
     62        6           0.001377716   -0.006493459   -0.000799944
     63        1          -0.000507674   -0.000556000    0.000918267
     64        1          -0.000004882   -0.000642500    0.000214104
     65        1          -0.000713924   -0.000817041   -0.000189454
     66        6          -0.004609415    0.003047608    0.000793640
     67        1          -0.000807960    0.000422724   -0.000186717
     68        1          -0.001333650    0.000037033   -0.000181585
     69        1          -0.000075364    0.000029677   -0.000386557
     70        7          -0.004549526   -0.002692628    0.008026594
     71        7          -0.004832542    0.006545542    0.005647946
     72        7          -0.006413615    0.005697747   -0.004292513
 -------------------------------------------------------------------
 Cartesian Forces:  Max     0.016982442 RMS     0.003564773

 GradGradGradGradGradGradGradGradGradGradGradGradGradGradGradGradGradGrad
 Berny optimization.
 FormGI is forming the generalized inverse of G from B-inverse, IUseBI=4.
[...]
 19554,-0.00035789,-0.00029163,0.00045969,0.00016239,0.00000339,-0.0000
 5078,0.00002411,-0.00025268,0.00024642,-0.00019701,0.00001653,-0.00002
 463,-0.00001325,-0.00020506,-0.00018380,0.00004354,0.00001477,0.000041
 14,0.00000885,0.00004642,-0.00002299,0.00002911,-0.00017849,-0.0002464
 9,-0.00008892,-0.00000444,-0.00000120,-0.00001207,0.00010145,0.0001008
 4,0.00011991,-0.00006960,0.00000421,0.00003977,0.00001753,0.00002397,-
 0.00000173,-0.00002154,-0.00000653,0.00002017,0.00003794,-0.00001312,0
 .00007841,0.00000269,-0.00001619,-0.00000335,-0.00001072,0.00001753,-0
 .00002841,0.00001373,-0.00000093,-0.00000239,-0.00000487,0.00000128,0.
 00000063,-0.00000885,0.00000304,0.00000466,0.00001467,-0.00000647,0.00
 000144,0.00000032,0.00000082,-0.00000701,0.00000899,0.00000279,0.00000
 319,0.00000343,-0.00000999,-0.00000052,-0.00000741,-0.00002285,-0.0000
 5735,0.00001944,0.00003173,-0.00001544,0.00000352,0.00001019,0.0000011
 0,0.00000145,-0.00000821,0.00001183,-0.00000583,-0.00000579,0.00000063
 ,0.05515916,-0.00722294,-0.08120353,-0.00222822,0.00486465,0.01272891,
 0.03329623,-0.01292692,-0.01067894,0.00312102,-0.00214061,-0.00302028,
 0.00061713,0.00395785,0.00339718,-0.00058800,-0.00095962,-0.00013046,-
 0.00016494,-0.00042549,-0.00154276,-0.00000657,-0.00013275,-0.00015462
 ,-0.00008579,0.00034856,-0.00033479,-0.00000254,0.00018360,0.00037546,
 -0.00013857,-0.00028211,-0.00007908,-0.00015526,-0.00069877,0.00025714
 ,0.00002955,-0.00049505,-0.00626229,-0.00039942,-0.00066875,0.00050092
 ,-0.00071363,-0.00125189,0.00088967,-0.00165212,-0.00194409,0.00225710
 ,0.01903587,-0.01720900,-0.06671155,-0.00138027,-0.01368480,-0.0025288
 0,0.00207019,0.02895908,0.00940387,0.00404450,-0.01766618,0.00529258,0
 .00467177,-0.00322664,-0.00073566,-0.00113225,0.00062722,-0.00000854,-
 0.00147360,-0.00055086,0.00024265,-0.00031687,0.00062723,0.00011883,-0
 .17637059,-0.00988663,0.22191428,0.00398182,0.00676745,0.00501042,-0.0
 0088164,-0.00151833,-0.00144014,-0.03984594,-0.01709832,-0.01049436,-0
 .00024852,0.00017987,0.00008932,-0.00029290,0.00050971,0.00014591,-0.0
 0015024,0.00015999,0.00018543,-0.00056698,0.00027829,-0.00005368,-0.00
 012479,0.00014325,-0.00012549,-0.00043201,-0.00020921,0.00005694,-0.00
 016592,-0.00008267,0.00012364,-0.00061024,-0.00057927,0.00044536,-0.00
 026247,-0.00030808,-0.00003049,-0.00049764,0.00050610,0.00060514,-0.00
 012152,-0.00057334,-0.00021188,0.00016365,0.00004397,-0.00000340,0.000
 24334,0.00016537,0.00007687,0.00015236,-0.00004460,0.00003109,0.000322
 57,-0.00053113,-0.00033803,-0.00001072,0.00005921,-0.00001216,0.000380
 33,-0.00036377,0.00020809,-0.00003798,0.00003384,0.00002427,0.00040161
 ,0.00028992,-0.00019627,-0.00001920,-0.00005574,-0.00001210,0.00064843
 ,0.00008979,-0.00052512,0.00062269,0.00078010,-0.00014445,-0.00006648,
 -0.00003809,0.00006158,0.00004086,0.00000326,0.00001689,0.00002890,-0.
 00000506,-0.00004640,-0.00000158,-0.00002836,0.00001278,-0.00000084,0.
 00000518,-0.00002562,0.00001979,-0.00004008,0.00003765,-0.00000958,0.0
 0002452,0.00000548,0.00000395,-0.00001638,0.00000593,-0.00000109,-0.00
 000449,0.00000345,0.00000535,-0.00000499,-0.00000667,0.00000523,-0.000
 00048,-0.00000504,-0.00002130,0.00000779,-0.00000109,0.00001576,0.0000
 1364,0.00000665,-0.00002031,-0.00000291,0.00000288,0.00000790,0.000006
 93,0.00000027,-0.00001086,0.00003700,0.00007189,-0.00005831,0.00005851
 ,0.00003986,-0.00000641,-0.00002723,0.00002002,0.00001301,0.00000496,-
 0.00001715,0.00000512,-0.00000513,0.00000199,-0.00172040,0.00111230,-0
 .00023219,-0.00033923,-0.00097853,-0.00016794,0.00023264,-0.00090458,-
 0.00016508,-0.00006657,-0.00230811,-0.00056915,-0.00195212,0.00176137,
 0.00142662,0.00005781,-0.00034589,-0.00062681,0.00001403,-0.00039728,-
 0.00052228,0.00047481,-0.00038961,-0.00025847,-0.09880001,-0.04521110,
 0.00990719,0.00116066,-0.00507384,-0.00140796,-0.01786204,-0.03464165,
 0.01472985,0.00632555,0.00877099,-0.00193339,-0.08322174,-0.00730215,-
 0.03101103,-0.00940438,0.00416511,-0.03723233,0.00206079,-0.00314545,-
 0.00216406,0.00683829,-0.00052467,0.01501555,-0.00280732,0.00224531,0.
 00080367,0.00043272,-0.00039485,-0.00017018,-0.00003829,-0.00069831,-0
 .00022544,-0.00010873,-0.00105106,-0.00013416,-0.00190198,0.00047286,0
 .00099426,0.00030039,-0.00041829,-0.00072560,-0.00011721,-0.00040078,-
 0.00080360,-0.00015261,-0.00110344,-0.00189336,0.00144754,-0.01766555,
 -0.00363261,0.23377143,-0.00498757,-0.00423786,-0.00580255,0.00248955,
 0.00111006,0.00155383,-0.00722305,-0.13648210,-0.05796577,0.00055694,0
 .00161699,0.00038331,0.00036475,-0.00007606,-0.00005344,0.00020722,-0.
 00006439,-0.00016449,0.00043668,0.00011796,0.00007448,0.00010349,0.000
 00374,0.00005939,0.00032912,0.00043253,0.00003104,0.00000868,0.0001589
 3,-0.00010727,-0.00043197,0.00010269,0.00019967,-0.00018575,0.00005597
 ,0.00007444,-0.00016483,-0.00254052,-0.00114741,0.00013543,0.00062426,
 0.00038625,-0.00018110,-0.00049100,-0.00009719,-0.00004882,-0.00010014
 ,-0.00004269,-0.00055012,-0.00077178,-0.00044656,-0.00036236,0.0003602
 3,0.00026507,-0.00002224,-0.00002934,0.00001117,-0.00022831,0.00013792
 ,-0.00008073,0.00000728,-0.00003597,-0.00002818,-0.00016340,-0.0003024
 0,0.00018341,0.00002919,0.00002282,-0.00000126,0.00087624,-0.00020775,
 -0.00022140,0.00028525,0.00009190,-0.00016278,-0.00002326,0.00000139,0
 .00004449,0.00006004,0.00015114,0.00009192,-0.00008095,0.00001169,0.00
 005647,0.00002136,0.00004123,0.00001537,-0.00000556,-0.00002934,0.0000
 1971,0.00007816,0.00000372,0.00009657,0.00000602,-0.00001326,-0.000007
 62,-0.00000328,0.00002781,-0.00002241,0.00000155,-0.00000397,0.0000060
 9,0.00000344,0.00000466,-0.00000190,-0.00001235,-0.00000337,0.00001154
 ,0.00000929,-0.00000653,0.00000046,0.00002617,0.00001463,0.00001528,0.
 00000637,0.00000420,0.00001089,0.00000414,-0.00000746,-0.00001124,-0.0
 0004299,-0.00002635,0.00002140,-0.00005610,0.00011161,-0.00000699,0.00
 002200,0.00000162,0.00000613,0.00002496,-0.00003577,-0.00002619,-0.000
 01535,-0.00001918,0.00001500,0.00211316,-0.00226720,-0.00125416,-0.000
 72569,-0.00004785,0.00008305,-0.00028995,0.00011370,0.00019986,-0.0004
 4179,-0.00023970,0.00006575,0.00136389,0.00054022,0.00049356,0.0000515
 0,0.00033245,0.00052400,-0.00003037,-0.00005688,-0.00023215,-0.0001651
 9,0.00000170,0.00039872,-0.07120942,-0.14636782,0.02795249,-0.01996480
 ,-0.03022297,0.01503604,-0.01404276,-0.00448016,0.00442678,-0.00212823
 ,-0.00718050,0.00406112,-0.00262356,-0.09293896,0.02801090,0.00028585,
 0.00076516,0.00771715,-0.01194310,0.00702128,-0.02446062,0.01227929,-0
 .00390175,0.02620667,-0.00449690,0.00162565,-0.00028349,-0.00015514,0.
 00053783,0.00008186,-0.00017257,-0.00070904,-0.00009409,-0.00055236,-0
 .00164434,0.00006666,0.00166583,-0.00106306,-0.00056245,-0.00028132,0.
 00057342,0.00020486,0.00018907,0.00037447,0.00057852,-0.00066659,0.000
 00855,0.00071013,-0.00186140,-0.02151406,-0.00161857,0.12282317,0.4357
 8050,-0.00340047,-0.00450310,-0.00043788,0.00164151,0.00074136,0.00059
 020,-0.00347612,-0.05921444,-0.10067440,0.00037493,0.00064693,0.000469
 43,0.00023267,-0.00017553,0.00001390,0.00011381,-0.00009724,-0.0000207
 3,0.00035623,-0.00004813,0.00011145,0.00005189,-0.00005784,0.00014524,
 0.00020291,0.00018148,0.00008186,0.00005443,0.00004660,0.00006156,0.00
 002753,0.00005822,0.00022965,0.00003397,0.00010853,0.00020733,-0.00002
 189,-0.00116409,-0.00115797,0.00011556,0.00046557,0.00027162,-0.000104
 45,-0.00023742,-0.00010019,-0.00005809,-0.00012646,0.00002184,-0.00026
 466,-0.00024103,-0.00064898,-0.00020988,0.00032145,0.00007612,-0.00000
 210,-0.00003787,0.00001730,-0.00018513,0.00020134,-0.00020075,0.000007
 32,-0.00002283,-0.00000601,-0.00012423,-0.00013050,-0.00005009,0.00001
 217,0.00003782,0.00000947,0.00013285,0.00005704,-0.00012800,-0.0001105
 4,-0.00016192,-0.00020908,-0.00002898,-0.00001579,0.00000260,0.0001017
 2,0.00006525,0.00016063,-0.00009393,0.00001976,0.00005285,0.00003129,0
 .00002190,0.00001169,-0.00004580,0.00000392,0.00002256,0.00008696,-0.0
 0007084,0.00017800,-0.00000094,-0.00001136,-0.00000044,-0.00000928,0.0
 0000969,-0.00002664,0.00001410,-0.00000360,-0.00000096,-0.00000453,-0.
 00000018,-0.00000191,-0.00000766,0.00000274,0.00000433,0.00001126,-0.0
 0000669,-0.00000006,0.00000646,0.00000821,-0.00001313,0.00000379,0.000
 00183,0.00000813,0.00001302,-0.00001448,-0.00000100,-0.00011918,0.0000
 0415,-0.00016885,0.00008527,0.00004809,-0.00001814,0.00000382,0.000005
 23,0.00000698,0.00000278,-0.00000775,0.00001998,-0.00000300,-0.0000066
 6,0.00000137,0.00083512,-0.00021606,-0.00018677,0.00045515,0.00058817,
 0.00016916,-0.00020060,0.00029297,0.00037110,-0.00073369,0.00059274,-0
 .00035256,-0.00564195,0.00075848,0.00100183,-0.00039405,-0.00057867,-0
 .00201176,-0.00010300,-0.00034307,-0.00067176,-0.00010935,0.00023437,0
 .00031719,0.02574294,0.04149669,-0.11107098,-0.01022978,-0.01099225,0.
 00780484,0.00436661,0.00567768,-0.00171765,0.01885020,0.02683839,-0.01
 208500,-0.06231823,0.01702640,-0.18011116,-0.01460262,0.00498323,-0.01
 480078,-0.01069790,0.00417792,-0.03035805,-0.00401202,0.00301878,-0.01
 618163,0.00265259,0.00022920,0.00075475,0.00001124,0.00018387,-0.00020
 955,-0.00000665,-0.00008013,0.00001926,0.00028033,0.00106897,0.0001317
 7,0.00151882,-0.00184587,-0.00121178,-0.00016130,0.00003097,-0.0001502
 8,-0.00079902,-0.00002293,-0.00046411,-0.00019266,-0.00015901,-0.00082
 758,0.00046818,0.01088778,0.00415874,0.05872561,-0.02909329,0.48217739
 ,-0.00098924,0.00353790,-0.00832498,-0.00257693,0.00093267,0.00233340,
 -0.09173452,0.05519944,-0.06869967,-0.00082435,-0.00090180,-0.00032068
 ,-0.00061140,0.00061407,0.00015415,-0.00031632,0.00023554,0.00027034,-
 0.00079426,0.00024378,-0.00009354,-0.00020266,0.00015040,-0.00016803,-
 0.00065359,-0.00046336,0.00002612,-0.00018813,-0.00016646,0.00017498,-
 0.00035613,-0.00058233,0.00026059,-0.00018166,-0.00031537,-0.00007164,
 0.00094336,0.00119707,0.00078499,0.00007602,-0.00061206,-0.00015593,0.
 00032619,0.00023498,-0.00004681,0.00028075,0.00021302,0.00008873,0.000
 53309,0.00037564,0.00042034,0.00061275,-0.00085234,-0.00047973,0.00000
 610,0.00008442,-0.00002953,0.00055195,-0.00045600,0.00026231,-0.000045
 88,0.00005342,0.00004429,0.00051191,0.00046386,-0.00029229,-0.00003445
 ,-0.00007441,-0.00001291,0.00005660,0.00016510,-0.00031303,0.00048189,
 0.00068840,-0.00006940,-0.00004936,-0.00002585,0.00005066,-0.00012700,
 -0.00023171,-0.00021339,0.00014520,-0.00000175,-0.00010340,-0.00002860
 ,-0.00005842,0.00001024,0.00001684,0.00002147,-0.00004159,-0.00004738,
 -0.00002574,-0.00005760,-0.00001538,0.00003484,0.00001190,0.00000927,-
 0.00003903,0.00002514,-0.00000450,0.00000019,-0.00000033,0.00000433,-0
 .00000861,-0.00000582,0.00001782,-0.00000003,-0.00001350,-0.00002837,0
 .00001146,-0.00000367,0.00000302,0.00000554,0.00000006,-0.00002507,-0.
 00000594,-0.00000285,0.00000516,0.00001197,0.00000535,-0.00003122,0.00
 005760,0.00007163,-0.00000734,-0.00003000,0.00003877,-0.00001354,-0.00
 002928,0.00000776,0.00000477,0.00002326,-0.00001432,0.00001280,0.00000
 798,-0.00000750,0.00105700,0.00078327,-0.00098915,0.00091201,0.0002697
 3,-0.00078736,0.00026444,-0.00016501,0.00008587,-0.00038593,-0.0000727
 5,-0.00015737,-0.08213727,0.02714971,0.01568346,0.00705646,-0.00656167
 ,-0.02523487,0.00130477,0.00225416,-0.00242635,-0.00073381,0.01058452,
 0.02865375,0.00009907,-0.00253630,0.00005622,-0.00023691,0.00005941,-0
 .00088652,-0.00005853,0.00039130,-0.00004794,-0.00159107,-0.00034593,-
 0.00224825,0.00048641,0.00014207,0.00116079,0.00012895,0.00015687,0.00
 035864,0.00009949,0.00018572,0.00002610,-0.00013313,0.00004596,-0.0001
 8686,0.00004502,0.00121177,0.00092107,0.00003634,-0.00058263,0.0000290
 1,0.00018995,-0.00061999,-0.00014736,0.00000571,0.00037276,-0.00024682
 ,-0.15964846,0.06030312,-0.00622528,-0.00863100,0.01341464,-0.00344834
 ,-0.03597783,0.02560972,0.00192794,-0.00281358,0.00278135,0.00252152,0
 .01028510,-0.00601495,0.00697259,0.00277877,-0.00032460,0.00084867,0.3
 6288549,0.00117146,-0.00051163,0.00580581,0.00172400,-0.00083224,-0.00
 159379,0.04611778,-0.06946774,0.03911450,0.00057913,0.00100981,0.00026
 363,0.00037906,-0.00020513,-0.00006803,0.00020723,-0.00009397,-0.00015
 865,0.00043039,-0.00003209,0.00005385,0.00011927,-0.00003890,0.0000698
 2,0.00038968,0.00035941,-0.00001168,0.00007096,0.00013742,-0.00013344,
 -0.00000866,0.00032293,-0.00011499,-0.00000093,0.00015288,0.00001041,-
 0.00076000,-0.00115582,-0.00055347,-0.00004883,0.00032443,0.00013421,-
 0.00019183,-0.00024752,0.00000530,-0.00012817,-0.00013778,-0.00004329,
 -0.00039853,-0.00040369,-0.00032144,-0.00037244,0.00041629,0.00026380,
 -0.00001588,-0.00003614,0.00001637,-0.00028482,0.00019256,-0.00010511,
 0.00001921,-0.00003304,-0.00002859,-0.00027056,-0.00031210,0.00021612,
 0.00002584,0.00003614,0.00000237,0.00025792,-0.00017727,0.00014092,-0.
 00008687,-0.00026878,0.00002529,0.00002583,0.00002372,0.00000070,0.000
 09980,0.00017221,0.00014227,-0.00009701,-0.00000060,0.00006452,0.00002
 009,0.00003827,0.00000065,-0.00000462,-0.00002251,0.00002454,0.0000453
 3,0.00001752,0.00005067,0.00000654,-0.00001605,-0.00000821,-0.00000401
 ,0.00002550,-0.00002171,0.00000258,-0.00000193,0.00000424,0.00000091,0
 .00000607,0.00000123,-0.00001335,-0.00000239,0.00001108,0.00001311,-0.
 00000653,0.00000168,0.00000931,0.00000324,0.00000856,0.00001295,0.0000
 0341,0.00000575,-0.00000113,-0.00000652,-0.00000770,-0.00002685,-0.000
 03453,-0.00001980,-0.00001340,0.00004838,-0.00002589,0.00001601,0.0000
 1325,-0.00000571,0.00001138,-0.00002647,-0.00001397,-0.00001354,-0.000
 00994,0.00000732,0.00356994,-0.00217470,-0.00148067,-0.00130173,0.0002
 1745,-0.00055434,-0.00100283,0.00028700,0.00027574,-0.00032700,0.00030
 774,0.00048781,0.02016643,-0.09424633,-0.05748894,0.00485267,-0.004988
 41,-0.02232245,0.00124467,0.01395514,0.01457735,0.00053103,-0.00986722
 ,-0.01929835,-0.00066401,-0.00502910,0.00054140,-0.00052186,0.00039686
 ,-0.00145694,-0.00053838,0.00006111,-0.00081232,-0.00086053,0.00103016
 ,-0.00301536,-0.00030604,-0.00222377,0.00071858,-0.00040863,-0.0001631
 4,-0.00062480,-0.00024620,0.00048488,-0.00049741,0.00008265,0.00015497
 ,-0.00060638,0.00058854,0.00320556,0.00116724,-0.00006009,0.00001027,-
 0.00004268,-0.00035101,-0.00085666,0.00014973,-0.00031248,-0.00026884,
 -0.00072952,0.07561552,-0.10668577,-0.00251742,0.02882097,-0.01726494,
 -0.00252533,0.00314167,0.01124798,0.00059680,0.01278279,-0.01070839,-0
 .00092633,0.00169235,0.00044540,0.01299942,-0.00702700,0.00523420,-0.0
 1145667,-0.18817577,0.28821644,0.00146198,0.00018158,0.00255664,-0.000
 12537,-0.00019448,-0.00039380,-0.04316722,0.03701309,-0.14182222,-0.00
 009253,0.00006342,0.00016448,-0.00009922,0.00013875,0.00011056,-0.0000
 5229,0.00000770,0.00015965,-0.00012210,0.00005861,0.00003471,-0.000047
 61,0.00001506,0.00003568,-0.00013514,-0.00006915,0.00007586,-0.0000371
 4,-0.00003352,0.00012882,-0.00018228,-0.00021473,0.00029298,-0.0000698
 8,-0.00005907,0.00013977,-0.00006412,0.00000107,0.00002109,0.00000397,
 -0.00008767,-0.00005011,0.00004354,-0.00001526,-0.00003609,0.00007472,
 0.00003944,0.00001194,0.00002871,-0.00003983,-0.00014037,0.00012105,-0
 .00009997,-0.00023120,0.00000580,0.00000296,0.00000856,0.00009854,-0.0
 0005052,-0.00003467,-0.00001512,0.00000961,0.00001445,0.00012614,0.000
 09884,-0.00017335,-0.00000481,-0.00000404,0.00000438,0.00021799,0.0000
 9000,-0.00028241,0.00017799,0.00021397,-0.00022895,-0.00006133,-0.0000
 2544,0.00002831,0.00005459,0.00000521,0.00005731,-0.00001518,0.0000061
 8,-0.00000773,0.00000933,-0.00000653,0.00000940,-0.00001829,0.00000384
 ,-0.00000761,0.00001998,-0.00003859,0.00006235,-0.00000994,0.00000791,
 0.00000280,-0.00000413,-0.00000986,-0.00001212,0.00000996,-0.00000193,
 -0.00000023,-0.00000289,-0.00000484,-0.00000551,0.00000046,0.00000469,
 -0.00000399,-0.00000370,0.00000015,0.00000034,0.00000552,0.00000663,-0
 .00000717,-0.00000763,-0.00000133,0.00000234,0.00000909,-0.00000430,0.
 00000248,-0.00004784,0.00001018,-0.00002043,0.00001803,0.00002293,0.00
 001593,0.00000152,-0.00000771,0.00001164,0.00001051,-0.00000352,0.0000
 0245,-0.00000144,-0.00000460,-0.00000430,-0.00424831,0.00102692,0.0019
 3620,0.00112521,0.00005746,0.00033998,0.00081844,-0.00019473,-0.000440
 13,-0.00001486,-0.00026604,-0.00000603,-0.01260846,-0.04633448,-0.1916
 8492,-0.00337490,-0.01472924,-0.02380850,0.00302689,-0.01485369,-0.037
 11581,0.00317438,-0.00220428,-0.00355888,0.00043397,0.00282613,-0.0027
 9670,-0.00027795,-0.00041038,0.00014942,-0.00089292,-0.00065950,0.0000
 4312,-0.00036953,-0.00137081,-0.00064770,-0.00013284,-0.00607205,0.001
 38309,-0.00082230,0.00006008,-0.00087143,-0.00080022,0.00022287,-0.001
 67425,0.00032249,0.00036799,0.00054558,-0.00037999,-0.00392470,-0.0048
 9692,-0.00012403,0.00036107,0.00008139,0.00015530,0.00216100,0.0002085
 1,0.00068589,0.00076240,0.00064265,0.01333121,-0.01996329,-0.09731473,
 -0.02241724,0.01286436,0.00319121,-0.00667650,0.00322251,0.00126015,0.
 02885938,-0.01822859,0.00046406,-0.00386521,0.01307697,-0.00844743,-0.
 01132737,0.00354541,-0.02340549,0.05828726,0.05163167,0.52593092\\0.00
 000097,0.00000290,0.00000130,0.00000116,-0.00000033,-0.00000089,-0.000
 00360,0.00000006,0.00000203,0.00000115,0.00000359,0.00000014,-0.000004
 12,0.00000309,0.00000457,-0.00000336,-0.00000109,-0.00000020,-0.000000
 02,-0.00000582,0.00000169,-0.00000066,-0.00000255,0.00000485,0.0000019
 1,-0.00000340,0.00000223,-0.00000071,-0.00000144,-0.00000118,0.0000014
 2,0.00000139,-0.00000249,0.00000175,0.00000012,0.00000071,-0.00000201,
 -0.00000567,-0.00000074,-0.00000114,0.00000013,0.00000134,0.00000004,0
 .00000153,-0.00000048,-0.00000119,-0.00000117,-0.00000018,-0.00000344,
 -0.00000128,-0.00000322,0.00000531,-0.00000581,-0.00000511,-0.00000089
 ,0.00000014,0.00000043,-0.00000237,0.00000158,-0.00000601,-0.00000106,
 -0.00000183,0.00000200,0.00000454,0.00000090,-0.00000165,0.00000266,-0
 .00000653,0.00000158,0.00000221,-0.00000198,0.00000301,0.00000211,-0.0
 0000266,-0.00000055,-0.00000073,0.00000110,-0.00000010,-0.00000020,0.0
 0000058,0.00000045,-0.00000005,-0.00000105,-0.00000038,-0.00000007,-0.
 00000160,0.00000021,-0.00000011,-0.00000091,0.00000010,0.00000033,-0.0
 0000083,0.00000079,-0.00000214,-0.00000134,0.00000067,-0.00000236,-0.0
 0000095,-0.00000001,-0.00000243,-0.00000087,0.00000083,0.00000015,-0.0
 0000204,-0.00000035,-0.00000097,-0.00000146,-0.00000098,-0.00000122,-0
 .00000271,-0.00000003,0.00000058,0.00000012,-0.00000061,0.00000038,-0.
 00000082,-0.00000025,-0.00000064,-0.00000049,-0.00000002,0.00000035,0.
 00000060,0.00000062,-0.00000093,0.00000011,-0.00000044,0.00000180,-0.0
 0000134,-0.00000038,0.00000181,-0.00000156,-0.00000048,0.00000155,-0.0
 0000189,-0.00000031,0.00000172,0.00000063,-0.00000078,-0.00000088,0.00
 000302,0.00000012,-0.00000116,0.00000215,0.00000015,-0.00000033,0.0000
 0266,0.00000050,0.00000069,0.00000354,0.00000180,-0.00000058,0.0000018
 1,-0.00000038,0.00000068,0.00000125,-0.00000086,-0.00000086,0.00000055
 ,-0.00000048,0.00000046,0.00000165,-0.00000007,0.00000128,0.00000146,-
 0.00000037,0.00000053,0.00000080,-0.00000032,0.00000104,0.00000144,0.0
 0000004,0.00000078,0.00000058,-0.00000062,0.00000041,0.00000022,0.0000
 0012,0.00000098,0.00000134,0.00000019,-0.00000011,0.00000193,0.0000007
 5,0.00000056,0.00000162,0.00000282,-0.00000144,0.00000110,-0.00000038,
 -0.00000049,0.00000121,0.00000030,-0.00000123,0.00000179,0.00000053,0.
 00000336,0.00000179,0.00000013,0.00000002,0.00000239,-0.00000014,-0.00
 000034,0.00000239,-0.00000029,0.00000016,0.00000168,-0.00000005,-0.000
 00002,0.00000572,-0.00000665,0.00000051,0.00000237,0.00000101,-0.00000
 152,-0.00000361,0.00000042\\\@


 THERE IS MORE TO LIFE THAN INCREASING ITS SPEED.

                                       -- GANDHI
 Job cpu time:       0 days  9 hours 26 minutes  5.4 seconds.
 File lengths (MBytes):  RWF=   3034 Int=      0 D2E=      0 Chk=     28 Scr=      1
 Normal termination of Gaussian 09 at Mon Apr  3 19:59:22 2023.
