 Entering Gaussian System, Link 0=g09
 Input=AF30-helio.com
 Output=AF30-helio.log
 Initial command:
 /home/scr/programs/g09/l1.exe "/home/scr/helius/Gau-9919.inp" -scrdir="/home/scr/helius/"
 Entering Link 1 = /home/scr/programs/g09/l1.exe PID=      9921.
  
 Copyright (c) 1988,1990,1992,1993,1995,1998,2003,2009,2013,
            Gaussian, Inc.  All Rights Reserved.
  
 This is part of the Gaussian(R) 09 program.  It is based on
 the Gaussian(R) 03 system (copyright 2003, Gaussian, Inc.),
 the Gaussian(R) 98 system (copyright 1998, Gaussian, Inc.),
 the Gaussian(R) 94 system (copyright 1995, Gaussian, Inc.),
 the Gaussian 92(TM) system (copyright 1992, Gaussian, Inc.),
 the Gaussian 90(TM) system (copyright 1990, Gaussian, Inc.),
 the Gaussian 88(TM) system (copyright 1988, Gaussian, Inc.),
 the Gaussian 86(TM) system (copyright 1986, Carnegie Mellon
 University), and the Gaussian 82(TM) system (copyright 1983,
 Carnegie Mellon University). Gaussian is a federally registered
 trademark of Gaussian, Inc.
  
 This software contains proprietary and confidential information,
 including trade secrets, belonging to Gaussian, Inc.
  
 This software is provided under written license and may be
 used, copied, transmitted, or stored only in accord with that
 written license.
  
 The following legend is applicable only to US Government
 contracts under FAR:
  
                    RESTRICTED RIGHTS LEGEND
  
 Use, reproduction and disclosure by the US Government is
 subject to restrictions as set forth in subparagraphs (a)
 and (c) of the Commercial Computer Software - Restricted
 Rights clause in FAR 52.227-19.
  
 Gaussian, Inc.
 340 Quinnipiac St., Bldg. 40, Wallingford CT 06492
  
  
 ---------------------------------------------------------------
 Warning -- This program may not be used in any manner that
 competes with the business of Gaussian, Inc. or will provide
 assistance to any competitor of Gaussian, Inc.  The licensee
 of this program is prohibited from giving any competitor of
 Gaussian, Inc. access to this program.  By using this program,
 the user acknowledges that Gaussian, Inc. is engaged in the
 business of creating and licensing software in the field of
 computational chemistry and represents and warrants to the
 licensee that it is not a competitor of Gaussian, Inc. and that
 it will not use this program in any manner prohibited above.
 ---------------------------------------------------------------
  

 Cite this work as:
 Gaussian 09, Revision D.01,
 M. J. Frisch, G. W. Trucks, H. B. Schlegel, G. E. Scuseria, 
 M. A. Robb, J. R. Cheeseman, G. Scalmani, V. Barone, B. Mennucci, 
 G. A. Petersson, H. Nakatsuji, M. Caricato, X. Li, H. P. Hratchian, 
 A. F. Izmaylov, J. Bloino, G. Zheng, J. L. Sonnenberg, M. Hada, 
 M. Ehara, K. Toyota, R. Fukuda, J. Hasegawa, M. Ishida, T. Nakajima, 
 Y. Honda, O. Kitao, H. Nakai, T. Vreven, J. A. Montgomery, Jr., 
 J. E. Peralta, F. Ogliaro, M. Bearpark, J. J. Heyd, E. Brothers, 
 K. N. Kudin, V. N. Staroverov, T. Keith, R. Kobayashi, J. Normand, 
 K. Raghavachari, A. Rendell, J. C. Burant, S. S. Iyengar, J. Tomasi, 
 M. Cossi, N. Rega, J. M. Millam, M. Klene, J. E. Knox, J. B. Cross, 
 V. Bakken, C. Adamo, J. Jaramillo, R. Gomperts, R. E. Stratmann, 
 O. Yazyev, A. J. Austin, R. Cammi, C. Pomelli, J. W. Ochterski, 
 R. L. Martin, K. Morokuma, V. G. Zakrzewski, G. A. Voth, 
 P. Salvador, J. J. Dannenberg, S. Dapprich, A. D. Daniels, 
 O. Farkas, J. B. Foresman, J. V. Ortiz, J. Cioslowski, 
 and D. J. Fox, Gaussian, Inc., Wallingford CT, 2013.
 
 ******************************************
 Gaussian 09:  EM64L-G09RevD.01 24-Apr-2013
                 3-Apr-2023 
 ******************************************
 %mem=30000MB
 %nprocshared=8
 Will use up to    8 processors via shared memory.
 ----------------------------------------
 # opt freq=noraman b3lyp/gen pseudo=read
 ----------------------------------------
 1/14=-1,18=20,19=15,26=3,38=1/1,3;
 2/9=110,12=2,17=6,18=5,40=1/2;
 3/5=7,11=2,16=1,17=8,25=1,30=1,71=1,74=-5/1,2,3;
 4//1;
 5/5=2,38=5/2;
 6/7=2,8=2,9=2,10=2,28=1/1;
 7//1,2,3,16;
 1/14=-1,18=20,19=15,26=3/3(2);
 2/9=110/2;
 99//99;
 2/9=110/2;
 3/5=7,6=1,11=2,16=1,17=8,25=1,30=1,71=1,74=-5,82=7/1,2,3;
 4/5=5,16=3,69=1/1;
 5/5=2,38=5/2;
 7//1,2,3,16;
 1/14=-1,18=20,19=15,26=3/3(-5);
 2/9=110/2;
 6/7=2,8=2,9=2,10=2,19=2,28=1/1;
 99/9=1/99;
 --
 af
 --
 Symbolic Z-matrix:
 Charge =  0 Multiplicity = 1
 Au                   -1.47789  -0.76032  -0.5611 
 S                     0.54843  -1.58415  -1.36878 
 P                    -3.49961   0.02493   0.18792 
 O                     1.84551   0.52438  -0.43415 
 O                     3.11507  -2.86775  -0.14449 
 O                     3.69038  -3.48628  -2.23223 
 O                     5.4736   -1.27062   0.03318 
 O                     5.86601  -2.18202   2.05538 
 O                     4.94895   1.26257   1.2994 
 O                     6.39959   2.08384  -0.21499 
 O                     2.97298   3.04818  -0.95473 
 O                     2.47331   5.17636  -0.47812 
 C                     1.75941  -0.87362  -0.23068 
 C                     3.14264  -1.48629  -0.47798 
 C                     4.17783  -0.82087   0.42032 
 C                     4.12394   0.69226   0.28778 
 C                     2.6852    1.17226   0.49705 
 C                     3.37858  -3.77381  -1.10291 
 C                     3.22202  -5.16424  -0.56969 
 C                     6.22327  -1.94022   0.92873 
 C                     7.53847  -2.32985   0.32814 
 C                     6.0595    1.93127   0.93168 
 C                     6.78643   2.44726   2.13473 
 C                     2.51196   2.66494   0.33891 
 C                     2.90512   4.35061  -1.24856 
 C                     3.43114   4.62919  -2.62327 
 H                     1.45514  -1.07368   0.80673 
 H                     3.41519  -1.36572  -1.53099 
 H                     4.00256  -1.10791   1.46266 
 H                     4.48467   1.00337  -0.69607 
 H                     2.37363   0.92621   1.52624 
 H                     3.56455  -5.88604  -1.31003 
 H                     2.16566  -5.34156  -0.34403 
 H                     3.78138  -5.27898   0.3622 
 H                     8.06551  -1.43636  -0.01829 
 H                     7.36962  -2.96938  -0.54306 
 H                     8.14068  -2.85699   1.06684 
 H                     6.12992   3.1092    2.70669 
 H                     7.6802    2.98599   1.82315 
 H                     7.05957   1.61284   2.78702 
 H                     1.45412   2.92346   0.44588 
 H                     3.08      3.19541   1.109 
 H                     3.30926   5.68561  -2.85892 
 H                     2.90275   4.01571  -3.35803 
 H                     4.49033   4.35882  -2.67063 
 C                    -3.74442   1.79624  -0.13704 
 C                    -2.63812   2.6475   -0.03998 
 C                    -4.99685   2.32688  -0.45792 
 C                    -2.78686   4.01455  -0.24664 
 H                    -1.65819   2.23707   0.19069 
 C                    -5.14013   3.69541  -0.67137 
 H                    -5.86137   1.67566  -0.54575 
 C                    -4.03829   4.53972  -0.56333 
 H                    -1.92323   4.66814  -0.16913 
 H                    -6.11565   4.10022  -0.92341 
 H                    -4.15261   5.60628  -0.73253 
 C                    -4.91197  -0.81895  -0.58432 
 C                    -6.07847  -1.11787   0.12446 
 C                    -4.82158  -1.15564  -1.93973 
 C                    -7.14427  -1.74197  -0.51882 
 H                    -6.15739  -0.86922   1.17856 
 C                    -5.89122  -1.77126  -2.58005 
 H                    -3.91042  -0.93973  -2.49205 
 C                    -7.05349  -2.06616  -1.8697 
 H                    -8.04629  -1.97443   0.03922 
 H                    -5.81333  -2.02894  -3.63194 
 H                    -7.88551  -2.55438  -2.36837 
 C                    -3.71681  -0.18365   1.98065 
 C                    -3.23069  -1.35431   2.57373 
 C                    -4.36294   0.77196   2.76926 
 C                    -3.40268  -1.5718    3.93613 
 H                    -2.71102  -2.09205   1.96738 
 C                    -4.52611   0.55376   4.135 
 H                    -4.73661   1.6885    2.32265 
 C                    -4.05015  -0.61722   4.71848 
 H                    -3.02308  -2.48304   4.38836 
 H                    -5.02647   1.30222   4.74205 
 H                    -4.17739  -0.78387   5.78398 
 

 GradGradGradGradGradGradGradGradGradGradGradGradGradGradGradGradGradGrad
 Berny optimization.
 Initialization pass.
                           ----------------------------
                           !    Initial Parameters    !
                           ! (Angstroms and Degrees)  !
 --------------------------                            --------------------------
 ! Name  Definition              Value          Derivative Info.                !
 --------------------------------------------------------------------------------
 ! R1    R(1,2)                  2.3317         estimate D2E/DX2                !
 ! R2    R(1,3)                  2.2946         estimate D2E/DX2                !
 ! R3    R(2,13)                 1.8074         estimate D2E/DX2                !
 ! R4    R(3,46)                 1.8174         estimate D2E/DX2                !
 ! R5    R(3,57)                 1.8175         estimate D2E/DX2                !
 ! R6    R(3,68)                 1.8178         estimate D2E/DX2                !
 ! R7    R(4,13)                 1.4154         estimate D2E/DX2                !
 ! R8    R(4,17)                 1.4114         estimate D2E/DX2                !
 ! R9    R(5,14)                 1.4214         estimate D2E/DX2                !
 ! R10   R(5,18)                 1.345          estimate D2E/DX2                !
 ! R11   R(6,18)                 1.2063         estimate D2E/DX2                !
 ! R12   R(7,15)                 1.4252         estimate D2E/DX2                !
 ! R13   R(7,20)                 1.3462         estimate D2E/DX2                !
 ! R14   R(8,20)                 1.2064         estimate D2E/DX2                !
 ! R15   R(9,16)                 1.4245         estimate D2E/DX2                !
 ! R16   R(9,22)                 1.3475         estimate D2E/DX2                !
 ! R17   R(10,22)                1.2057         estimate D2E/DX2                !
 ! R18   R(11,24)                1.4258         estimate D2E/DX2                !
 ! R19   R(11,25)                1.3369         estimate D2E/DX2                !
 ! R20   R(12,25)                1.2091         estimate D2E/DX2                !
 ! R21   R(13,14)                1.5329         estimate D2E/DX2                !
 ! R22   R(13,27)                1.0995         estimate D2E/DX2                !
 ! R23   R(14,15)                1.5236         estimate D2E/DX2                !
 ! R24   R(14,28)                1.0944         estimate D2E/DX2                !
 ! R25   R(15,16)                1.5199         estimate D2E/DX2                !
 ! R26   R(15,29)                1.0953         estimate D2E/DX2                !
 ! R27   R(16,17)                1.5311         estimate D2E/DX2                !
 ! R28   R(16,30)                1.0931         estimate D2E/DX2                !
 ! R29   R(17,24)                1.511          estimate D2E/DX2                !
 ! R30   R(17,31)                1.1031         estimate D2E/DX2                !
 ! R31   R(18,19)                1.4974         estimate D2E/DX2                !
 ! R32   R(19,32)                1.0892         estimate D2E/DX2                !
 ! R33   R(19,33)                1.0947         estimate D2E/DX2                !
 ! R34   R(19,34)                1.0929         estimate D2E/DX2                !
 ! R35   R(20,21)                1.4974         estimate D2E/DX2                !
 ! R36   R(21,35)                1.0937         estimate D2E/DX2                !
 ! R37   R(21,36)                1.0938         estimate D2E/DX2                !
 ! R38   R(21,37)                1.0891         estimate D2E/DX2                !
 ! R39   R(22,23)                1.4973         estimate D2E/DX2                !
 ! R40   R(23,38)                1.0938         estimate D2E/DX2                !
 ! R41   R(23,39)                1.0891         estimate D2E/DX2                !
 ! R42   R(23,40)                1.0938         estimate D2E/DX2                !
 ! R43   R(24,41)                1.0942         estimate D2E/DX2                !
 ! R44   R(24,42)                1.0941         estimate D2E/DX2                !
 ! R45   R(25,26)                1.498          estimate D2E/DX2                !
 ! R46   R(26,43)                1.0892         estimate D2E/DX2                !
 ! R47   R(26,44)                1.0934         estimate D2E/DX2                !
 ! R48   R(26,45)                1.0942         estimate D2E/DX2                !
 ! R49   R(46,47)                1.3993         estimate D2E/DX2                !
 ! R50   R(46,48)                1.3975         estimate D2E/DX2                !
 ! R51   R(47,49)                1.3906         estimate D2E/DX2                !
 ! R52   R(47,50)                1.0872         estimate D2E/DX2                !
 ! R53   R(48,51)                1.3925         estimate D2E/DX2                !
 ! R54   R(48,52)                1.0859         estimate D2E/DX2                !
 ! R55   R(49,53)                1.3936         estimate D2E/DX2                !
 ! R56   R(49,54)                1.0858         estimate D2E/DX2                !
 ! R57   R(51,53)                1.3923         estimate D2E/DX2                !
 ! R58   R(51,55)                1.0858         estimate D2E/DX2                !
 ! R59   R(53,56)                1.0859         estimate D2E/DX2                !
 ! R60   R(57,58)                1.3973         estimate D2E/DX2                !
 ! R61   R(57,59)                1.3995         estimate D2E/DX2                !
 ! R62   R(58,60)                1.3926         estimate D2E/DX2                !
 ! R63   R(58,61)                1.0859         estimate D2E/DX2                !
 ! R64   R(59,62)                1.3904         estimate D2E/DX2                !
 ! R65   R(59,63)                1.0871         estimate D2E/DX2                !
 ! R66   R(60,64)                1.3922         estimate D2E/DX2                !
 ! R67   R(60,65)                1.0859         estimate D2E/DX2                !
 ! R68   R(62,64)                1.3937         estimate D2E/DX2                !
 ! R69   R(62,66)                1.0858         estimate D2E/DX2                !
 ! R70   R(64,67)                1.0859         estimate D2E/DX2                !
 ! R71   R(68,69)                1.3995         estimate D2E/DX2                !
 ! R72   R(68,70)                1.3973         estimate D2E/DX2                !
 ! R73   R(69,71)                1.3903         estimate D2E/DX2                !
 ! R74   R(69,72)                1.0872         estimate D2E/DX2                !
 ! R75   R(70,73)                1.3927         estimate D2E/DX2                !
 ! R76   R(70,74)                1.0859         estimate D2E/DX2                !
 ! R77   R(71,75)                1.3937         estimate D2E/DX2                !
 ! R78   R(71,76)                1.0858         estimate D2E/DX2                !
 ! R79   R(73,75)                1.3922         estimate D2E/DX2                !
 ! R80   R(73,77)                1.0858         estimate D2E/DX2                !
 ! R81   R(75,78)                1.0859         estimate D2E/DX2                !
 ! A1    A(1,2,13)             103.0173         estimate D2E/DX2                !
 ! A2    A(1,3,46)             113.1943         estimate D2E/DX2                !
 ! A3    A(1,3,57)             112.7739         estimate D2E/DX2                !
 ! A4    A(1,3,68)             112.8259         estimate D2E/DX2                !
 ! A5    A(46,3,57)            105.7761         estimate D2E/DX2                !
 ! A6    A(46,3,68)            105.7872         estimate D2E/DX2                !
 ! A7    A(57,3,68)            105.8373         estimate D2E/DX2                !
 ! A8    A(13,4,17)            113.2508         estimate D2E/DX2                !
 ! A9    A(14,5,18)            118.9299         estimate D2E/DX2                !
 ! A10   A(15,7,20)            118.8525         estimate D2E/DX2                !
 ! A11   A(16,9,22)            118.8296         estimate D2E/DX2                !
 ! A12   A(24,11,25)           116.4146         estimate D2E/DX2                !
 ! A13   A(2,13,4)             109.7881         estimate D2E/DX2                !
 ! A14   A(2,13,14)            110.2359         estimate D2E/DX2                !
 ! A15   A(2,13,27)            109.7066         estimate D2E/DX2                !
 ! A16   A(4,13,14)            108.4625         estimate D2E/DX2                !
 ! A17   A(4,13,27)            109.4031         estimate D2E/DX2                !
 ! A18   A(14,13,27)           109.2211         estimate D2E/DX2                !
 ! A19   A(5,14,13)            109.4559         estimate D2E/DX2                !
 ! A20   A(5,14,15)            107.4168         estimate D2E/DX2                !
 ! A21   A(5,14,28)            109.7342         estimate D2E/DX2                !
 ! A22   A(13,14,15)           110.0855         estimate D2E/DX2                !
 ! A23   A(13,14,28)           109.6287         estimate D2E/DX2                !
 ! A24   A(15,14,28)           110.4861         estimate D2E/DX2                !
 ! A25   A(7,15,14)            108.6483         estimate D2E/DX2                !
 ! A26   A(7,15,16)            108.828          estimate D2E/DX2                !
 ! A27   A(7,15,29)            108.7418         estimate D2E/DX2                !
 ! A28   A(14,15,16)           111.0571         estimate D2E/DX2                !
 ! A29   A(14,15,29)           109.7499         estimate D2E/DX2                !
 ! A30   A(16,15,29)           109.769          estimate D2E/DX2                !
 ! A31   A(9,16,15)            108.4276         estimate D2E/DX2                !
 ! A32   A(9,16,17)            108.7625         estimate D2E/DX2                !
 ! A33   A(9,16,30)            109.5174         estimate D2E/DX2                !
 ! A34   A(15,16,17)           109.4825         estimate D2E/DX2                !
 ! A35   A(15,16,30)           110.4956         estimate D2E/DX2                !
 ! A36   A(17,16,30)           110.115          estimate D2E/DX2                !
 ! A37   A(4,17,16)            108.9638         estimate D2E/DX2                !
 ! A38   A(4,17,24)            108.434          estimate D2E/DX2                !
 ! A39   A(4,17,31)            110.1906         estimate D2E/DX2                !
 ! A40   A(16,17,24)           113.7747         estimate D2E/DX2                !
 ! A41   A(16,17,31)           108.8453         estimate D2E/DX2                !
 ! A42   A(24,17,31)           106.5953         estimate D2E/DX2                !
 ! A43   A(5,18,6)             123.8603         estimate D2E/DX2                !
 ! A44   A(5,18,19)            110.5674         estimate D2E/DX2                !
 ! A45   A(6,18,19)            125.5714         estimate D2E/DX2                !
 ! A46   A(18,19,32)           109.9026         estimate D2E/DX2                !
 ! A47   A(18,19,33)           108.9486         estimate D2E/DX2                !
 ! A48   A(18,19,34)           110.3412         estimate D2E/DX2                !
 ! A49   A(32,19,33)           109.6479         estimate D2E/DX2                !
 ! A50   A(32,19,34)           110.4284         estimate D2E/DX2                !
 ! A51   A(33,19,34)           107.525          estimate D2E/DX2                !
 ! A52   A(7,20,8)             123.7814         estimate D2E/DX2                !
 ! A53   A(7,20,21)            110.5921         estimate D2E/DX2                !
 ! A54   A(8,20,21)            125.6264         estimate D2E/DX2                !
 ! A55   A(20,21,35)           109.7385         estimate D2E/DX2                !
 ! A56   A(20,21,36)           109.6331         estimate D2E/DX2                !
 ! A57   A(20,21,37)           109.8497         estimate D2E/DX2                !
 ! A58   A(35,21,36)           107.4426         estimate D2E/DX2                !
 ! A59   A(35,21,37)           110.1081         estimate D2E/DX2                !
 ! A60   A(36,21,37)           110.0333         estimate D2E/DX2                !
 ! A61   A(9,22,10)            123.6958         estimate D2E/DX2                !
 ! A62   A(9,22,23)            110.6023         estimate D2E/DX2                !
 ! A63   A(10,22,23)           125.7017         estimate D2E/DX2                !
 ! A64   A(22,23,38)           109.7129         estimate D2E/DX2                !
 ! A65   A(22,23,39)           109.8167         estimate D2E/DX2                !
 ! A66   A(22,23,40)           109.7247         estimate D2E/DX2                !
 ! A67   A(38,23,39)           110.0485         estimate D2E/DX2                !
 ! A68   A(38,23,40)           107.4417         estimate D2E/DX2                !
 ! A69   A(39,23,40)           110.0623         estimate D2E/DX2                !
 ! A70   A(11,24,17)           108.8698         estimate D2E/DX2                !
 ! A71   A(11,24,41)           109.7416         estimate D2E/DX2                !
 ! A72   A(11,24,42)           109.9016         estimate D2E/DX2                !
 ! A73   A(17,24,41)           109.5125         estimate D2E/DX2                !
 ! A74   A(17,24,42)           110.2289         estimate D2E/DX2                !
 ! A75   A(41,24,42)           108.5761         estimate D2E/DX2                !
 ! A76   A(11,25,12)           122.9175         estimate D2E/DX2                !
 ! A77   A(11,25,26)           111.41           estimate D2E/DX2                !
 ! A78   A(12,25,26)           125.6718         estimate D2E/DX2                !
 ! A79   A(25,26,43)           109.853          estimate D2E/DX2                !
 ! A80   A(25,26,44)           110.0385         estimate D2E/DX2                !
 ! A81   A(25,26,45)           109.4925         estimate D2E/DX2                !
 ! A82   A(43,26,44)           110.1651         estimate D2E/DX2                !
 ! A83   A(43,26,45)           109.7924         estimate D2E/DX2                !
 ! A84   A(44,26,45)           107.4629         estimate D2E/DX2                !
 ! A85   A(3,46,47)            118.2954         estimate D2E/DX2                !
 ! A86   A(3,46,48)            122.1289         estimate D2E/DX2                !
 ! A87   A(47,46,48)           119.5689         estimate D2E/DX2                !
 ! A88   A(46,47,49)           120.2119         estimate D2E/DX2                !
 ! A89   A(46,47,50)           119.8477         estimate D2E/DX2                !
 ! A90   A(49,47,50)           119.9389         estimate D2E/DX2                !
 ! A91   A(46,48,51)           120.0381         estimate D2E/DX2                !
 ! A92   A(46,48,52)           120.2866         estimate D2E/DX2                !
 ! A93   A(51,48,52)           119.6749         estimate D2E/DX2                !
 ! A94   A(47,49,53)           120.0189         estimate D2E/DX2                !
 ! A95   A(47,49,54)           119.7402         estimate D2E/DX2                !
 ! A96   A(53,49,54)           120.2386         estimate D2E/DX2                !
 ! A97   A(48,51,53)           120.1756         estimate D2E/DX2                !
 ! A98   A(48,51,55)           119.6316         estimate D2E/DX2                !
 ! A99   A(53,51,55)           120.1928         estimate D2E/DX2                !
 ! A100  A(49,53,51)           119.9829         estimate D2E/DX2                !
 ! A101  A(49,53,56)           120.0038         estimate D2E/DX2                !
 ! A102  A(51,53,56)           120.012          estimate D2E/DX2                !
 ! A103  A(3,57,58)            122.1771         estimate D2E/DX2                !
 ! A104  A(3,57,59)            118.2304         estimate D2E/DX2                !
 ! A105  A(58,57,59)           119.5848         estimate D2E/DX2                !
 ! A106  A(57,58,60)           120.0329         estimate D2E/DX2                !
 ! A107  A(57,58,61)           120.2706         estimate D2E/DX2                !
 ! A108  A(60,58,61)           119.696          estimate D2E/DX2                !
 ! A109  A(57,59,62)           120.1894         estimate D2E/DX2                !
 ! A110  A(57,59,63)           119.8925         estimate D2E/DX2                !
 ! A111  A(62,59,63)           119.9173         estimate D2E/DX2                !
 ! A112  A(58,60,64)           120.1772         estimate D2E/DX2                !
 ! A113  A(58,60,65)           119.6255         estimate D2E/DX2                !
 ! A114  A(64,60,65)           120.1972         estimate D2E/DX2                !
 ! A115  A(59,62,64)           120.0346         estimate D2E/DX2                !
 ! A116  A(59,62,66)           119.7396         estimate D2E/DX2                !
 ! A117  A(64,62,66)           120.2235         estimate D2E/DX2                !
 ! A118  A(60,64,62)           119.9776         estimate D2E/DX2                !
 ! A119  A(60,64,67)           120.0203         estimate D2E/DX2                !
 ! A120  A(62,64,67)           120.0009         estimate D2E/DX2                !
 ! A121  A(3,68,69)            118.1908         estimate D2E/DX2                !
 ! A122  A(3,68,70)            122.2321         estimate D2E/DX2                !
 ! A123  A(69,68,70)           119.5716         estimate D2E/DX2                !
 ! A124  A(68,69,71)           120.2098         estimate D2E/DX2                !
 ! A125  A(68,69,72)           119.8227         estimate D2E/DX2                !
 ! A126  A(71,69,72)           119.9662         estimate D2E/DX2                !
 ! A127  A(68,70,73)           120.032          estimate D2E/DX2                !
 ! A128  A(68,70,74)           120.2799         estimate D2E/DX2                !
 ! A129  A(73,70,74)           119.6877         estimate D2E/DX2                !
 ! A130  A(69,71,75)           120.0249         estimate D2E/DX2                !
 ! A131  A(69,71,76)           119.7473         estimate D2E/DX2                !
 ! A132  A(75,71,76)           120.2256         estimate D2E/DX2                !
 ! A133  A(70,73,75)           120.1815         estimate D2E/DX2                !
 ! A134  A(70,73,77)           119.6195         estimate D2E/DX2                !
 ! A135  A(75,73,77)           120.199          estimate D2E/DX2                !
 ! A136  A(71,75,73)           119.9765         estimate D2E/DX2                !
 ! A137  A(71,75,78)           120.0057         estimate D2E/DX2                !
 ! A138  A(73,75,78)           120.0166         estimate D2E/DX2                !
 ! A139  L(2,1,3,12,-1)        180.943          estimate D2E/DX2                !
 ! A140  L(2,1,3,12,-2)        178.8383         estimate D2E/DX2                !
 ! D1    D(13,2,3,46)           72.0634         estimate D2E/DX2                !
 ! D2    D(13,2,3,57)         -168.2878         estimate D2E/DX2                !
 ! D3    D(13,2,3,68)          -48.5681         estimate D2E/DX2                !
 ! D4    D(1,2,13,4)           -69.3992         estimate D2E/DX2                !
 ! D5    D(1,2,13,14)          171.1728         estimate D2E/DX2                !
 ! D6    D(1,2,13,27)           50.8587         estimate D2E/DX2                !
 ! D7    D(1,3,46,47)          -36.2768         estimate D2E/DX2                !
 ! D8    D(1,3,46,48)          144.6809         estimate D2E/DX2                !
 ! D9    D(57,3,46,47)        -160.241          estimate D2E/DX2                !
 ! D10   D(57,3,46,48)          20.7167         estimate D2E/DX2                !
 ! D11   D(68,3,46,47)          87.7606         estimate D2E/DX2                !
 ! D12   D(68,3,46,48)         -91.2817         estimate D2E/DX2                !
 ! D13   D(1,3,57,58)          142.8194         estimate D2E/DX2                !
 ! D14   D(1,3,57,59)          -38.1908         estimate D2E/DX2                !
 ! D15   D(46,3,57,58)         -92.953          estimate D2E/DX2                !
 ! D16   D(46,3,57,59)          86.0368         estimate D2E/DX2                !
 ! D17   D(68,3,57,58)          19.0103         estimate D2E/DX2                !
 ! D18   D(68,3,57,59)        -161.9999         estimate D2E/DX2                !
 ! D19   D(1,3,68,69)          -38.3303         estimate D2E/DX2                !
 ! D20   D(1,3,68,70)          142.5286         estimate D2E/DX2                !
 ! D21   D(46,3,68,69)        -162.5983         estimate D2E/DX2                !
 ! D22   D(46,3,68,70)          18.2606         estimate D2E/DX2                !
 ! D23   D(57,3,68,69)          85.4461         estimate D2E/DX2                !
 ! D24   D(57,3,68,70)         -93.695          estimate D2E/DX2                !
 ! D25   D(17,4,13,2)          174.7567         estimate D2E/DX2                !
 ! D26   D(17,4,13,14)         -64.7353         estimate D2E/DX2                !
 ! D27   D(17,4,13,27)          54.3146         estimate D2E/DX2                !
 ! D28   D(13,4,17,16)          65.4422         estimate D2E/DX2                !
 ! D29   D(13,4,17,24)        -170.2341         estimate D2E/DX2                !
 ! D30   D(13,4,17,31)         -53.9167         estimate D2E/DX2                !
 ! D31   D(18,5,14,13)         118.9831         estimate D2E/DX2                !
 ! D32   D(18,5,14,15)        -121.5094         estimate D2E/DX2                !
 ! D33   D(18,5,14,28)          -1.3627         estimate D2E/DX2                !
 ! D34   D(14,5,18,6)            2.9204         estimate D2E/DX2                !
 ! D35   D(14,5,18,19)        -176.7595         estimate D2E/DX2                !
 ! D36   D(20,7,15,14)        -118.7396         estimate D2E/DX2                !
 ! D37   D(20,7,15,16)         120.2153         estimate D2E/DX2                !
 ! D38   D(20,7,15,29)           0.6741         estimate D2E/DX2                !
 ! D39   D(15,7,20,8)           -0.3529         estimate D2E/DX2                !
 ! D40   D(15,7,20,21)         179.6801         estimate D2E/DX2                !
 ! D41   D(22,9,16,15)         113.8602         estimate D2E/DX2                !
 ! D42   D(22,9,16,17)        -127.1628         estimate D2E/DX2                !
 ! D43   D(22,9,16,30)          -6.7811         estimate D2E/DX2                !
 ! D44   D(16,9,22,10)           0.3385         estimate D2E/DX2                !
 ! D45   D(16,9,22,23)        -179.849          estimate D2E/DX2                !
 ! D46   D(25,11,24,17)       -179.103          estimate D2E/DX2                !
 ! D47   D(25,11,24,41)         61.0502         estimate D2E/DX2                !
 ! D48   D(25,11,24,42)        -58.2821         estimate D2E/DX2                !
 ! D49   D(24,11,25,12)         -0.3944         estimate D2E/DX2                !
 ! D50   D(24,11,25,26)        179.325          estimate D2E/DX2                !
 ! D51   D(2,13,14,5)          -65.8081         estimate D2E/DX2                !
 ! D52   D(2,13,14,15)         176.3408         estimate D2E/DX2                !
 ! D53   D(2,13,14,28)          54.6021         estimate D2E/DX2                !
 ! D54   D(4,13,14,5)          173.9622         estimate D2E/DX2                !
 ! D55   D(4,13,14,15)          56.1111         estimate D2E/DX2                !
 ! D56   D(4,13,14,28)         -65.6277         estimate D2E/DX2                !
 ! D57   D(27,13,14,5)          54.7978         estimate D2E/DX2                !
 ! D58   D(27,13,14,15)        -63.0533         estimate D2E/DX2                !
 ! D59   D(27,13,14,28)        175.2079         estimate D2E/DX2                !
 ! D60   D(5,14,15,7)           69.1993         estimate D2E/DX2                !
 ! D61   D(5,14,15,16)        -171.1367         estimate D2E/DX2                !
 ! D62   D(5,14,15,29)         -49.582          estimate D2E/DX2                !
 ! D63   D(13,14,15,7)        -171.6964         estimate D2E/DX2                !
 ! D64   D(13,14,15,16)        -52.0324         estimate D2E/DX2                !
 ! D65   D(13,14,15,29)         69.5224         estimate D2E/DX2                !
 ! D66   D(28,14,15,7)         -50.4688         estimate D2E/DX2                !
 ! D67   D(28,14,15,16)         69.1952         estimate D2E/DX2                !
 ! D68   D(28,14,15,29)       -169.25           estimate D2E/DX2                !
 ! D69   D(7,15,16,9)          -69.8497         estimate D2E/DX2                !
 ! D70   D(7,15,16,17)         171.6283         estimate D2E/DX2                !
 ! D71   D(7,15,16,30)          50.183          estimate D2E/DX2                !
 ! D72   D(14,15,16,9)         170.5936         estimate D2E/DX2                !
 ! D73   D(14,15,16,17)         52.0716         estimate D2E/DX2                !
 ! D74   D(14,15,16,30)        -69.3737         estimate D2E/DX2                !
 ! D75   D(29,15,16,9)          49.0499         estimate D2E/DX2                !
 ! D76   D(29,15,16,17)        -69.4721         estimate D2E/DX2                !
 ! D77   D(29,15,16,30)        169.0826         estimate D2E/DX2                !
 ! D78   D(9,16,17,4)         -175.2243         estimate D2E/DX2                !
 ! D79   D(9,16,17,24)          63.662          estimate D2E/DX2                !
 ! D80   D(9,16,17,31)         -55.0319         estimate D2E/DX2                !
 ! D81   D(15,16,17,4)         -56.9105         estimate D2E/DX2                !
 ! D82   D(15,16,17,24)       -178.0243         estimate D2E/DX2                !
 ! D83   D(15,16,17,31)         63.2819         estimate D2E/DX2                !
 ! D84   D(30,16,17,4)          64.7641         estimate D2E/DX2                !
 ! D85   D(30,16,17,24)        -56.3497         estimate D2E/DX2                !
 ! D86   D(30,16,17,31)       -175.0436         estimate D2E/DX2                !
 ! D87   D(4,17,24,11)         -64.594          estimate D2E/DX2                !
 ! D88   D(4,17,24,41)          55.3948         estimate D2E/DX2                !
 ! D89   D(4,17,24,42)         174.7863         estimate D2E/DX2                !
 ! D90   D(16,17,24,11)         56.8151         estimate D2E/DX2                !
 ! D91   D(16,17,24,41)        176.804          estimate D2E/DX2                !
 ! D92   D(16,17,24,42)        -63.8045         estimate D2E/DX2                !
 ! D93   D(31,17,24,11)        176.7885         estimate D2E/DX2                !
 ! D94   D(31,17,24,41)        -63.2227         estimate D2E/DX2                !
 ! D95   D(31,17,24,42)         56.1688         estimate D2E/DX2                !
 ! D96   D(5,18,19,32)        -172.4854         estimate D2E/DX2                !
 ! D97   D(5,18,19,33)          67.3566         estimate D2E/DX2                !
 ! D98   D(5,18,19,34)         -50.472          estimate D2E/DX2                !
 ! D99   D(6,18,19,32)           7.8415         estimate D2E/DX2                !
 ! D100  D(6,18,19,33)        -112.3165         estimate D2E/DX2                !
 ! D101  D(6,18,19,34)         129.8549         estimate D2E/DX2                !
 ! D102  D(7,20,21,35)          57.9561         estimate D2E/DX2                !
 ! D103  D(7,20,21,36)         -59.8266         estimate D2E/DX2                !
 ! D104  D(7,20,21,37)         179.1447         estimate D2E/DX2                !
 ! D105  D(8,20,21,35)        -122.0102         estimate D2E/DX2                !
 ! D106  D(8,20,21,36)         120.2072         estimate D2E/DX2                !
 ! D107  D(8,20,21,37)          -0.8216         estimate D2E/DX2                !
 ! D108  D(9,22,23,38)         -58.8556         estimate D2E/DX2                !
 ! D109  D(9,22,23,39)        -179.933          estimate D2E/DX2                !
 ! D110  D(9,22,23,40)          58.9651         estimate D2E/DX2                !
 ! D111  D(10,22,23,38)        120.9522         estimate D2E/DX2                !
 ! D112  D(10,22,23,39)         -0.1251         estimate D2E/DX2                !
 ! D113  D(10,22,23,40)       -121.227          estimate D2E/DX2                !
 ! D114  D(11,25,26,43)        176.629          estimate D2E/DX2                !
 ! D115  D(11,25,26,44)         55.1746         estimate D2E/DX2                !
 ! D116  D(11,25,26,45)        -62.7268         estimate D2E/DX2                !
 ! D117  D(12,25,26,43)         -3.6609         estimate D2E/DX2                !
 ! D118  D(12,25,26,44)       -125.1153         estimate D2E/DX2                !
 ! D119  D(12,25,26,45)        116.9833         estimate D2E/DX2                !
 ! D120  D(3,46,47,49)        -178.346          estimate D2E/DX2                !
 ! D121  D(3,46,47,50)           2.0976         estimate D2E/DX2                !
 ! D122  D(48,46,47,49)          0.7215         estimate D2E/DX2                !
 ! D123  D(48,46,47,50)       -178.8349         estimate D2E/DX2                !
 ! D124  D(3,46,48,51)         178.6649         estimate D2E/DX2                !
 ! D125  D(3,46,48,52)          -1.5631         estimate D2E/DX2                !
 ! D126  D(47,46,48,51)         -0.3656         estimate D2E/DX2                !
 ! D127  D(47,46,48,52)        179.4064         estimate D2E/DX2                !
 ! D128  D(46,47,49,53)         -0.5748         estimate D2E/DX2                !
 ! D129  D(46,47,49,54)        179.9821         estimate D2E/DX2                !
 ! D130  D(50,47,49,53)        178.9812         estimate D2E/DX2                !
 ! D131  D(50,47,49,54)         -0.4619         estimate D2E/DX2                !
 ! D132  D(46,48,51,53)         -0.1361         estimate D2E/DX2                !
 ! D133  D(46,48,51,55)        179.8078         estimate D2E/DX2                !
 ! D134  D(52,48,51,53)       -179.9095         estimate D2E/DX2                !
 ! D135  D(52,48,51,55)          0.0344         estimate D2E/DX2                !
 ! D136  D(47,49,53,51)          0.0694         estimate D2E/DX2                !
 ! D137  D(47,49,53,56)       -179.5073         estimate D2E/DX2                !
 ! D138  D(54,49,53,51)        179.5098         estimate D2E/DX2                !
 ! D139  D(54,49,53,56)         -0.067          estimate D2E/DX2                !
 ! D140  D(48,51,53,49)          0.2862         estimate D2E/DX2                !
 ! D141  D(48,51,53,56)        179.863          estimate D2E/DX2                !
 ! D142  D(55,51,53,49)       -179.6574         estimate D2E/DX2                !
 ! D143  D(55,51,53,56)         -0.0806         estimate D2E/DX2                !
 ! D144  D(3,57,58,60)         178.713          estimate D2E/DX2                !
 ! D145  D(3,57,58,61)          -1.5431         estimate D2E/DX2                !
 ! D146  D(59,57,58,60)         -0.2636         estimate D2E/DX2                !
 ! D147  D(59,57,58,61)        179.4803         estimate D2E/DX2                !
 ! D148  D(3,57,59,62)        -178.3575         estimate D2E/DX2                !
 ! D149  D(3,57,59,63)           1.9561         estimate D2E/DX2                !
 ! D150  D(58,57,59,62)          0.6593         estimate D2E/DX2                !
 ! D151  D(58,57,59,63)       -179.027          estimate D2E/DX2                !
 ! D152  D(57,58,60,64)         -0.206          estimate D2E/DX2                !
 ! D153  D(57,58,60,65)        179.7816         estimate D2E/DX2                !
 ! D154  D(61,58,60,64)       -179.9513         estimate D2E/DX2                !
 ! D155  D(61,58,60,65)          0.0363         estimate D2E/DX2                !
 ! D156  D(57,59,62,64)         -0.5849         estimate D2E/DX2                !
 ! D157  D(57,59,62,66)        179.9758         estimate D2E/DX2                !
 ! D158  D(63,59,62,64)        179.1013         estimate D2E/DX2                !
 ! D159  D(63,59,62,66)         -0.338          estimate D2E/DX2                !
 ! D160  D(58,60,64,62)          0.2833         estimate D2E/DX2                !
 ! D161  D(58,60,64,67)        179.8937         estimate D2E/DX2                !
 ! D162  D(65,60,64,62)       -179.7042         estimate D2E/DX2                !
 ! D163  D(65,60,64,67)         -0.0939         estimate D2E/DX2                !
 ! D164  D(59,62,64,60)          0.1125         estimate D2E/DX2                !
 ! D165  D(59,62,64,67)       -179.4979         estimate D2E/DX2                !
 ! D166  D(66,62,64,60)        179.5491         estimate D2E/DX2                !
 ! D167  D(66,62,64,67)         -0.0614         estimate D2E/DX2                !
 ! D168  D(3,68,69,71)        -178.4541         estimate D2E/DX2                !
 ! D169  D(3,68,69,72)           1.9708         estimate D2E/DX2                !
 ! D170  D(70,68,69,71)          0.7105         estimate D2E/DX2                !
 ! D171  D(70,68,69,72)       -178.8646         estimate D2E/DX2                !
 ! D172  D(3,68,70,73)         178.8007         estimate D2E/DX2                !
 ! D173  D(3,68,70,74)          -1.4269         estimate D2E/DX2                !
 ! D174  D(69,68,70,73)         -0.3288         estimate D2E/DX2                !
 ! D175  D(69,68,70,74)        179.4435         estimate D2E/DX2                !
 ! D176  D(68,69,71,75)         -0.5838         estimate D2E/DX2                !
 ! D177  D(68,69,71,76)        179.9594         estimate D2E/DX2                !
 ! D178  D(72,69,71,75)        178.9907         estimate D2E/DX2                !
 ! D179  D(72,69,71,76)         -0.4661         estimate D2E/DX2                !
 ! D180  D(68,70,73,75)         -0.1788         estimate D2E/DX2                !
 ! D181  D(68,70,73,77)        179.8095         estimate D2E/DX2                !
 ! D182  D(74,70,73,75)       -179.9525         estimate D2E/DX2                !
 ! D183  D(74,70,73,77)          0.0358         estimate D2E/DX2                !
 ! D184  D(69,71,75,73)          0.0727         estimate D2E/DX2                !
 ! D185  D(69,71,75,78)       -179.5184         estimate D2E/DX2                !
 ! D186  D(76,71,75,73)        179.527          estimate D2E/DX2                !
 ! D187  D(76,71,75,78)         -0.0641         estimate D2E/DX2                !
 ! D188  D(70,73,75,71)          0.3089         estimate D2E/DX2                !
 ! D189  D(70,73,75,78)        179.8999         estimate D2E/DX2                !
 ! D190  D(77,73,75,71)       -179.6793         estimate D2E/DX2                !
 ! D191  D(77,73,75,78)         -0.0883         estimate D2E/DX2                !
 --------------------------------------------------------------------------------
 Trust Radius=3.00D-01 FncErr=1.00D-07 GrdErr=1.00D-06
 Number of steps in this run=    422 maximum allowed number of steps=    468.
 GradGradGradGradGradGradGradGradGradGradGradGradGradGradGradGradGradGrad

 Stoichiometry    C32H34AuO9PS
 Framework group  C1[X(C32H34AuO9PS)]
 Deg. of freedom   228
 Full point group                 C1      NOp   1
 Largest Abelian subgroup         C1      NOp   1
 Largest concise Abelian subgroup C1      NOp   1
                         Standard orientation:                         
 ---------------------------------------------------------------------
 Center     Atomic      Atomic             Coordinates (Angstroms)
 Number     Number       Type             X           Y           Z
 ---------------------------------------------------------------------
      1         79           0       -1.477887   -0.760323   -0.561099
      2         16           0        0.548432   -1.584150   -1.368778
      3         15           0       -3.499612    0.024927    0.187923
      4          8           0        1.845510    0.524380   -0.434153
      5          8           0        3.115068   -2.867751   -0.144487
      6          8           0        3.690380   -3.486283   -2.232228
      7          8           0        5.473598   -1.270623    0.033184
      8          8           0        5.866014   -2.182021    2.055377
      9          8           0        4.948953    1.262565    1.299395
     10          8           0        6.399591    2.083840   -0.214990
     11          8           0        2.972981    3.048180   -0.954731
     12          8           0        2.473313    5.176363   -0.478119
     13          6           0        1.759407   -0.873623   -0.230679
     14          6           0        3.142643   -1.486288   -0.477979
     15          6           0        4.177832   -0.820866    0.420317
     16          6           0        4.123937    0.692257    0.287777
     17          6           0        2.685199    1.172260    0.497053
     18          6           0        3.378579   -3.773813   -1.102910
     19          6           0        3.222025   -5.164244   -0.569690
     20          6           0        6.223266   -1.940215    0.928727
     21          6           0        7.538465   -2.329851    0.328143
     22          6           0        6.059504    1.931265    0.931683
     23          6           0        6.786430    2.447255    2.134731
     24          6           0        2.511959    2.664935    0.338913
     25          6           0        2.905122    4.350607   -1.248559
     26          6           0        3.431143    4.629189   -2.623267
     27          1           0        1.455141   -1.073680    0.806730
     28          1           0        3.415192   -1.365722   -1.530991
     29          1           0        4.002560   -1.107906    1.462659
     30          1           0        4.484674    1.003369   -0.696072
     31          1           0        2.373629    0.926211    1.526237
     32          1           0        3.564551   -5.886044   -1.310031
     33          1           0        2.165658   -5.341561   -0.344031
     34          1           0        3.781383   -5.278980    0.362203
     35          1           0        8.065509   -1.436359   -0.018289
     36          1           0        7.369617   -2.969379   -0.543056
     37          1           0        8.140679   -2.856991    1.066840
     38          1           0        6.129919    3.109202    2.706687
     39          1           0        7.680204    2.985990    1.823151
     40          1           0        7.059571    1.612843    2.787015
     41          1           0        1.454118    2.923460    0.445877
     42          1           0        3.080004    3.195410    1.109004
     43          1           0        3.309260    5.685613   -2.858920
     44          1           0        2.902746    4.015714   -3.358025
     45          1           0        4.490331    4.358817   -2.670633
     46          6           0       -3.744420    1.796244   -0.137044
     47          6           0       -2.638124    2.647497   -0.039977
     48          6           0       -4.996845    2.326882   -0.457921
     49          6           0       -2.786856    4.014552   -0.246635
     50          1           0       -1.658185    2.237070    0.190689
     51          6           0       -5.140125    3.695413   -0.671372
     52          1           0       -5.861369    1.675656   -0.545745
     53          6           0       -4.038286    4.539722   -0.563326
     54          1           0       -1.923226    4.668142   -0.169127
     55          1           0       -6.115651    4.100219   -0.923412
     56          1           0       -4.152606    5.606276   -0.732526
     57          6           0       -4.911970   -0.818949   -0.584322
     58          6           0       -6.078466   -1.117871    0.124455
     59          6           0       -4.821582   -1.155644   -1.939733
     60          6           0       -7.144273   -1.741969   -0.518816
     61          1           0       -6.157390   -0.869222    1.178559
     62          6           0       -5.891215   -1.771264   -2.580053
     63          1           0       -3.910416   -0.939728   -2.492047
     64          6           0       -7.053491   -2.066163   -1.869700
     65          1           0       -8.046290   -1.974433    0.039221
     66          1           0       -5.813331   -2.028941   -3.631941
     67          1           0       -7.885506   -2.554375   -2.368372
     68          6           0       -3.716810   -0.183645    1.980646
     69          6           0       -3.230691   -1.354307    2.573726
     70          6           0       -4.362941    0.771962    2.769258
     71          6           0       -3.402676   -1.571804    3.936126
     72          1           0       -2.711015   -2.092054    1.967379
     73          6           0       -4.526109    0.553759    4.135004
     74          1           0       -4.736609    1.688497    2.322647
     75          6           0       -4.050150   -0.617216    4.718480
     76          1           0       -3.023082   -2.483035    4.388363
     77          1           0       -5.026466    1.302223    4.742047
     78          1           0       -4.177387   -0.783874    5.783978
 ---------------------------------------------------------------------
 Rotational constants (GHZ):      0.0875664      0.0349579      0.0302511
 General basis read from cards:  (5D, 7F)
 ======================================================================================================
                                       Pseudopotential Parameters
 ======================================================================================================
  Center     Atomic      Valence      Angular      Power
  Number     Number     Electrons     Momentum     of R      Exponent        Coefficient   SO-Coeffient
 ======================================================================================================
    1         79           19
                                      G and up 
                                                     1      622.6287956      -60.00000000    0.00000000
                                                     2      136.2843607     -555.52923120    0.00000000
                                                     2       33.1549781     -168.00197850    0.00000000
                                                     2        9.9894895      -63.03998750    0.00000000
                                                     2        3.0481312       -4.25166810    0.00000000
                                      S - G
                                                     0      194.7374304        3.00000000    0.00000000
                                                     1      351.5327447       38.60208800    0.00000000
                                                     2      122.3270402      864.83707270    0.00000000
                                                     2       32.0914617      374.99355200    0.00000000
                                                     2        5.2451812      289.79101000    0.00000000
                                                     2        4.4916223     -152.45327730    0.00000000
                                      P - G
                                                     0      420.6158801        2.00000000    0.00000000
                                                     1      109.4417815       73.88856250    0.00000000
                                                     2       34.1714280      326.67298720    0.00000000
                                                     2        5.9879750      126.58145910    0.00000000
                                      D - G
                                                     0      219.2666158        3.00000000    0.00000000
                                                     1      122.7297786       55.67931490    0.00000000
                                                     2       63.1063369      449.19873350    0.00000000
                                                     2       18.3684520      215.02690910    0.00000000
                                                     2        4.4972844       64.08409950    0.00000000
                                      F - G
                                                     0      108.5506037        4.00000000    0.00000000
                                                     1       56.4795527       51.80653350    0.00000000
                                                     2       29.2069159      231.21831130    0.00000000
                                                     2        9.5440543      119.00473860    0.00000000
                                                     2        2.8965118       15.34241880    0.00000000
    2         16
                                   No pseudopotential on this center.
    3         15
                                   No pseudopotential on this center.
    4          8
                                   No pseudopotential on this center.
    5          8
                                   No pseudopotential on this center.
    6          8
                                   No pseudopotential on this center.
    7          8
                                   No pseudopotential on this center.
    8          8
                                   No pseudopotential on this center.
    9          8
                                   No pseudopotential on this center.
   10          8
                                   No pseudopotential on this center.
   11          8
                                   No pseudopotential on this center.
   12          8
                                   No pseudopotential on this center.
   13          6
                                   No pseudopotential on this center.
   14          6
                                   No pseudopotential on this center.
   15          6
                                   No pseudopotential on this center.
   16          6
                                   No pseudopotential on this center.
   17          6
                                   No pseudopotential on this center.
   18          6
                                   No pseudopotential on this center.
   19          6
                                   No pseudopotential on this center.
   20          6
                                   No pseudopotential on this center.
   21          6
                                   No pseudopotential on this center.
   22          6
                                   No pseudopotential on this center.
   23          6
                                   No pseudopotential on this center.
   24          6
                                   No pseudopotential on this center.
   25          6
                                   No pseudopotential on this center.
   26          6
                                   No pseudopotential on this center.
   27          1
                                   No pseudopotential on this center.
   28          1
                                   No pseudopotential on this center.
   29          1
                                   No pseudopotential on this center.
   30          1
                                   No pseudopotential on this center.
   31          1
                                   No pseudopotential on this center.
   32          1
                                   No pseudopotential on this center.
   33          1
                                   No pseudopotential on this center.
   34          1
                                   No pseudopotential on this center.
   35          1
                                   No pseudopotential on this center.
   36          1
                                   No pseudopotential on this center.
   37          1
                                   No pseudopotential on this center.
   38          1
                                   No pseudopotential on this center.
   39          1
                                   No pseudopotential on this center.
   40          1
                                   No pseudopotential on this center.
   41          1
                                   No pseudopotential on this center.
   42          1
                                   No pseudopotential on this center.
   43          1
                                   No pseudopotential on this center.
   44          1
                                   No pseudopotential on this center.
   45          1
                                   No pseudopotential on this center.
   46          6
                                   No pseudopotential on this center.
   47          6
                                   No pseudopotential on this center.
   48          6
                                   No pseudopotential on this center.
   49          6
                                   No pseudopotential on this center.
   50          1
                                   No pseudopotential on this center.
   51          6
                                   No pseudopotential on this center.
   52          1
                                   No pseudopotential on this center.
   53          6
                                   No pseudopotential on this center.
   54          1
                                   No pseudopotential on this center.
   55          1
                                   No pseudopotential on this center.
   56          1
                                   No pseudopotential on this center.
   57          6
                                   No pseudopotential on this center.
   58          6
                                   No pseudopotential on this center.
   59          6
                                   No pseudopotential on this center.
   60          6
                                   No pseudopotential on this center.
   61          1
                                   No pseudopotential on this center.
   62          6
                                   No pseudopotential on this center.
   63          1
                                   No pseudopotential on this center.
   64          6
                                   No pseudopotential on this center.
   65          1
                                   No pseudopotential on this center.
   66          1
                                   No pseudopotential on this center.
   67          1
                                   No pseudopotential on this center.
   68          6
                                   No pseudopotential on this center.
   69          6
                                   No pseudopotential on this center.
   70          6
                                   No pseudopotential on this center.
   71          6
                                   No pseudopotential on this center.
   72          1
                                   No pseudopotential on this center.
   73          6
                                   No pseudopotential on this center.
   74          1
                                   No pseudopotential on this center.
   75          6
                                   No pseudopotential on this center.
   76          1
                                   No pseudopotential on this center.
   77          1
                                   No pseudopotential on this center.
   78          1
                                   No pseudopotential on this center.
 ======================================================================================================
 There are   769 symmetry adapted cartesian basis functions of A   symmetry.
 There are   720 symmetry adapted basis functions of A   symmetry.
   720 basis functions,  1436 primitive gaussians,   769 cartesian basis functions
   174 alpha electrons      174 beta electrons
       nuclear repulsion energy      6141.7067362648 Hartrees.
 NAtoms=   78 NActive=   78 NUniq=   78 SFac= 1.00D+00 NAtFMM=   60 NAOKFM=T Big=T
 Integral buffers will be    131072 words long.
 Raffenetti 2 integral format.
 Two-electron integral symmetry is turned on.
 One-electron integrals computed using PRISM.
   1 Symmetry operations used in ECPInt.
 ECPInt:  NShTT=   32896 NPrTT=  202836 LenC2=   21495 LenP2D=   65748.
 LDataN:  DoStor=T MaxTD1= 7 Len=  274
 NBasis=   720 RedAO= T EigKep=  4.73D-04  NBF=   720
 NBsUse=   720 1.00D-06 EigRej= -1.00D+00 NBFU=   720
 Defaulting to unpruned grid for atomic number  79.
 ExpMin= 2.79D-02 ExpMax= 2.19D+04 ExpMxC= 3.30D+03 IAcc=3 IRadAn=         5 AccDes= 0.00D+00
 Harris functional with IExCor=  402 and IRadAn=       5 diagonalized for initial guess.
 HarFok:  IExCor=  402 AccDes= 0.00D+00 IRadAn=         5 IDoV= 1 UseB2=F ITyADJ=14
 ICtDFT=  3500011 ScaDFX=  1.000000  1.000000  1.000000  1.000000
 Defaulting to unpruned grid for atomic number  79.
 Defaulting to unpruned grid for atomic number  79.
 Defaulting to unpruned grid for atomic number  79.
 Defaulting to unpruned grid for atomic number  79.
 Defaulting to unpruned grid for atomic number  79.
 Defaulting to unpruned grid for atomic number  79.
 Defaulting to unpruned grid for atomic number  79.
 Defaulting to unpruned grid for atomic number  79.
 FoFCou: FMM=F IPFlag=           0 FMFlag=      100000 FMFlg1=        2001
         NFxFlg=           0 DoJE=T BraDBF=F KetDBF=T FulRan=T
         wScrn=  0.000000 ICntrl=     500 IOpCl=  0 I1Cent=   200000004 NGrid=           0
         NMat0=    1 NMatS0=      1 NMatT0=    0 NMatD0=    1 NMtDS0=    0 NMtDT0=    0
 Petite list used in FoFCou.
 Requested convergence on RMS density matrix=1.00D-08 within 128 cycles.
 Requested convergence on MAX density matrix=1.00D-06.
 Requested convergence on             energy=1.00D-06.
 No special actions if energy rises.
 Defaulting to unpruned grid for atomic number  79.
 Defaulting to unpruned grid for atomic number  79.
 Defaulting to unpruned grid for atomic number  79.
 Defaulting to unpruned grid for atomic number  79.
 Defaulting to unpruned grid for atomic number  79.
 Defaulting to unpruned grid for atomic number  79.
 Defaulting to unpruned grid for atomic number  79.
 Defaulting to unpruned grid for atomic number  79.
 EnCoef did     3 forward-backward iterations
 EnCoef did     2 forward-backward iterations
 SCF Done:  E(RB3LYP) =  -2791.99616112     A.U. after   17 cycles
            NFock= 17  Conv=0.48D-08     -V/T= 2.0393

 **********************************************************************

            Population analysis using the SCF density.

 **********************************************************************

 Orbital symmetries:
       Occupied  (A) (A) (A) (A) (A) (A) (A) (A) (A) (A) (A) (A)
                 (A) (A) (A) (A) (A) (A) (A) (A) (A) (A) (A) (A)
                 (A) (A) (A) (A) (A) (A) (A) (A) (A) (A) (A) (A)
                 (A) (A) (A) (A) (A) (A) (A) (A) (A) (A) (A) (A)
                 (A) (A) (A) (A) (A) (A) (A) (A) (A) (A) (A) (A)
                 (A) (A) (A) (A) (A) (A) (A) (A) (A) (A) (A) (A)
                 (A) (A) (A) (A) (A) (A) (A) (A) (A) (A) (A) (A)
                 (A) (A) (A) (A) (A) (A) (A) (A) (A) (A) (A) (A)
                 (A) (A) (A) (A) (A) (A) (A) (A) (A) (A) (A) (A)
                 (A) (A) (A) (A) (A) (A) (A) (A) (A) (A) (A) (A)
                 (A) (A) (A) (A) (A) (A) (A) (A) (A) (A) (A) (A)
                 (A) (A) (A) (A) (A) (A) (A) (A) (A) (A) (A) (A)
                 (A) (A) (A) (A) (A) (A) (A) (A) (A) (A) (A) (A)
                 (A) (A) (A) (A) (A) (A) (A) (A) (A) (A) (A) (A)
                 (A) (A) (A) (A) (A) (A)
       Virtual   (A) (A) (A) (A) (A) (A) (A) (A) (A) (A) (A) (A)
                 (A) (A) (A) (A) (A) (A) (A) (A) (A) (A) (A) (A)
                 (A) (A) (A) (A) (A) (A) (A) (A) (A) (A) (A) (A)
                 (A) (A) (A) (A) (A) (A) (A) (A) (A) (A) (A) (A)
                 (A) (A) (A) (A) (A) (A) (A) (A) (A) (A) (A) (A)
                 (A) (A) (A) (A) (A) (A) (A) (A) (A) (A) (A) (A)
                 (A) (A) (A) (A) (A) (A) (A) (A) (A) (A) (A) (A)
                 (A) (A) (A) (A) (A) (A) (A) (A) (A) (A) (A) (A)
                 (A) (A) (A) (A) (A) (A) (A) (A) (A) (A) (A) (A)
                 (A) (A) (A) (A) (A) (A) (A) (A) (A) (A) (A) (A)
                 (A) (A) (A) (A) (A) (A) (A) (A) (A) (A) (A) (A)
                 (A) (A) (A) (A) (A) (A) (A) (A) (A) (A) (A) (A)
                 (A) (A) (A) (A) (A) (A) (A) (A) (A) (A) (A) (A)
                 (A) (A) (A) (A) (A) (A) (A) (A) (A) (A) (A) (A)
                 (A) (A) (A) (A) (A) (A) (A) (A) (A) (A) (A) (A)
                 (A) (A) (A) (A) (A) (A) (A) (A) (A) (A) (A) (A)
                 (A) (A) (A) (A) (A) (A) (A) (A) (A) (A) (A) (A)
                 (A) (A) (A) (A) (A) (A) (A) (A) (A) (A) (A) (A)
                 (A) (A) (A) (A) (A) (A) (A) (A) (A) (A) (A) (A)
                 (A) (A) (A) (A) (A) (A) (A) (A) (A) (A) (A) (A)
                 (A) (A) (A) (A) (A) (A) (A) (A) (A) (A) (A) (A)
                 (A) (A) (A) (A) (A) (A) (A) (A) (A) (A) (A) (A)
                 (A) (A) (A) (A) (A) (A) (A) (A) (A) (A) (A) (A)
                 (A) (A) (A) (A) (A) (A) (A) (A) (A) (A) (A) (A)
                 (A) (A) (A) (A) (A) (A) (A) (A) (A) (A) (A) (A)
                 (A) (A) (A) (A) (A) (A) (A) (A) (A) (A) (A) (A)
                 (A) (A) (A) (A) (A) (A) (A) (A) (A) (A) (A) (A)
                 (A) (A) (A) (A) (A) (A) (A) (A) (A) (A) (A) (A)
                 (A) (A) (A) (A) (A) (A) (A) (A) (A) (A) (A) (A)
                 (A) (A) (A) (A) (A) (A) (A) (A) (A) (A) (A) (A)
                 (A) (A) (A) (A) (A) (A) (A) (A) (A) (A) (A) (A)
                 (A) (A) (A) (A) (A) (A) (A) (A) (A) (A) (A) (A)
                 (A) (A) (A) (A) (A) (A) (A) (A) (A) (A) (A) (A)
                 (A) (A) (A) (A) (A) (A) (A) (A) (A) (A) (A) (A)
                 (A) (A) (A) (A) (A) (A) (A) (A) (A) (A) (A) (A)
                 (A) (A) (A) (A) (A) (A) (A) (A) (A) (A) (A) (A)
                 (A) (A) (A) (A) (A) (A) (A) (A) (A) (A) (A) (A)
                 (A) (A) (A) (A) (A) (A) (A) (A) (A) (A) (A) (A)
                 (A) (A) (A) (A) (A) (A) (A) (A) (A) (A) (A) (A)
                 (A) (A) (A) (A) (A) (A) (A) (A) (A) (A) (A) (A)
                 (A) (A) (A) (A) (A) (A) (A) (A) (A) (A) (A) (A)
                 (A) (A) (A) (A) (A) (A) (A) (A) (A) (A) (A) (A)
                 (A) (A) (A) (A) (A) (A) (A) (A) (A) (A) (A) (A)
                 (A) (A) (A) (A) (A) (A) (A) (A) (A) (A) (A) (A)
                 (A) (A) (A) (A) (A) (A) (A) (A) (A) (A) (A) (A)
                 (A) (A) (A) (A) (A) (A)
 The electronic state is 1-A.
 Alpha  occ. eigenvalues --  -88.80697 -77.12546 -19.18771 -19.18120 -19.18114
 Alpha  occ. eigenvalues --  -19.17396 -19.15038 -19.12968 -19.12454 -19.12228
 Alpha  occ. eigenvalues --  -19.11420 -10.31261 -10.30731 -10.30421 -10.29788
 Alpha  occ. eigenvalues --  -10.24590 -10.24202 -10.23865 -10.23828 -10.23624
 Alpha  occ. eigenvalues --  -10.23267 -10.21548 -10.21506 -10.21363 -10.20990
 Alpha  occ. eigenvalues --  -10.20936 -10.20844 -10.20820 -10.20788 -10.20742
 Alpha  occ. eigenvalues --  -10.20652 -10.20649 -10.20601 -10.20532 -10.20499
 Alpha  occ. eigenvalues --  -10.20489 -10.20400 -10.20392 -10.20193 -10.18659
 Alpha  occ. eigenvalues --  -10.18025 -10.17744 -10.17309  -7.88390  -6.60497
 Alpha  occ. eigenvalues --   -5.84802  -5.84332  -5.83914  -4.76651  -4.76643
 Alpha  occ. eigenvalues --   -4.76410  -4.16285  -2.30939  -2.28878  -2.28693
 Alpha  occ. eigenvalues --   -1.11148  -1.10347  -1.10098  -1.09149  -1.05024
 Alpha  occ. eigenvalues --   -1.01804  -1.01142  -1.00729  -1.00157  -0.88485
 Alpha  occ. eigenvalues --   -0.87515  -0.87381  -0.82105  -0.80925  -0.80067
 Alpha  occ. eigenvalues --   -0.76898  -0.76857  -0.76721  -0.76688  -0.76417
 Alpha  occ. eigenvalues --   -0.76331  -0.75710  -0.74462  -0.73481  -0.71337
 Alpha  occ. eigenvalues --   -0.68647  -0.68163  -0.64880  -0.62900  -0.62846
 Alpha  occ. eigenvalues --   -0.62710  -0.61959  -0.61719  -0.61627  -0.59552
 Alpha  occ. eigenvalues --   -0.59253  -0.58339  -0.57252  -0.55368  -0.54422
 Alpha  occ. eigenvalues --   -0.54043  -0.53908  -0.52098  -0.51875  -0.50252
 Alpha  occ. eigenvalues --   -0.49505  -0.48642  -0.48368  -0.47989  -0.47912
 Alpha  occ. eigenvalues --   -0.47848  -0.47809  -0.47621  -0.47022  -0.46843
 Alpha  occ. eigenvalues --   -0.46828  -0.46763  -0.46355  -0.46182  -0.45696
 Alpha  occ. eigenvalues --   -0.45270  -0.44994  -0.44401  -0.44279  -0.44137
 Alpha  occ. eigenvalues --   -0.43466  -0.43420  -0.43322  -0.43262  -0.42825
 Alpha  occ. eigenvalues --   -0.41829  -0.41248  -0.41014  -0.40426  -0.40093
 Alpha  occ. eigenvalues --   -0.39743  -0.39181  -0.38909  -0.38850  -0.38779
 Alpha  occ. eigenvalues --   -0.38391  -0.38286  -0.37972  -0.37491  -0.36732
 Alpha  occ. eigenvalues --   -0.36676  -0.36525  -0.36247  -0.36075  -0.35896
 Alpha  occ. eigenvalues --   -0.35562  -0.35429  -0.35278  -0.34184  -0.33749
 Alpha  occ. eigenvalues --   -0.32868  -0.32738  -0.32315  -0.31478  -0.30445
 Alpha  occ. eigenvalues --   -0.30142  -0.29817  -0.29804  -0.29552  -0.28823
 Alpha  occ. eigenvalues --   -0.28014  -0.27930  -0.27601  -0.27414  -0.27088
 Alpha  occ. eigenvalues --   -0.27071  -0.26943  -0.26776  -0.26333  -0.25840
 Alpha  occ. eigenvalues --   -0.25556  -0.25211  -0.23418  -0.19676
 Alpha virt. eigenvalues --   -0.04656  -0.04476  -0.03629  -0.02711  -0.02258
 Alpha virt. eigenvalues --   -0.01906  -0.00632   0.00483   0.01434   0.02019
 Alpha virt. eigenvalues --    0.02225   0.02985   0.03354   0.05802   0.06157
 Alpha virt. eigenvalues --    0.06800   0.07743   0.07951   0.08843   0.09007
 Alpha virt. eigenvalues --    0.09455   0.09744   0.11375   0.11730   0.11925
 Alpha virt. eigenvalues --    0.12114   0.12254   0.12564   0.12788   0.13004
 Alpha virt. eigenvalues --    0.13569   0.13727   0.14019   0.14248   0.14509
 Alpha virt. eigenvalues --    0.14783   0.14877   0.15046   0.15279   0.15661
 Alpha virt. eigenvalues --    0.16089   0.16142   0.16438   0.16701   0.16915
 Alpha virt. eigenvalues --    0.17255   0.17556   0.17680   0.17697   0.17980
 Alpha virt. eigenvalues --    0.18169   0.18214   0.18405   0.18560   0.19006
 Alpha virt. eigenvalues --    0.19354   0.19593   0.19925   0.20643   0.20953
 Alpha virt. eigenvalues --    0.21536   0.22588   0.23057   0.23190   0.23622
 Alpha virt. eigenvalues --    0.24090   0.24353   0.25029   0.26520   0.26805
 Alpha virt. eigenvalues --    0.27095   0.27380   0.27793   0.28301   0.28339
 Alpha virt. eigenvalues --    0.28545   0.28891   0.29027   0.29169   0.29608
 Alpha virt. eigenvalues --    0.30096   0.30585   0.30902   0.31035   0.31457
 Alpha virt. eigenvalues --    0.31673   0.31789   0.32307   0.33483   0.35356
 Alpha virt. eigenvalues --    0.36291   0.36808   0.37308   0.37593   0.37796
 Alpha virt. eigenvalues --    0.38321   0.38513   0.38829   0.39848   0.42551
 Alpha virt. eigenvalues --    0.42795   0.44288   0.45565   0.46594   0.47595
 Alpha virt. eigenvalues --    0.47900   0.49766   0.50087   0.50281   0.50599
 Alpha virt. eigenvalues --    0.51202   0.51361   0.51550   0.52676   0.52947
 Alpha virt. eigenvalues --    0.53174   0.53231   0.53686   0.54304   0.54476
 Alpha virt. eigenvalues --    0.54616   0.54774   0.55372   0.55896   0.55975
 Alpha virt. eigenvalues --    0.55999   0.56165   0.56305   0.56488   0.57012
 Alpha virt. eigenvalues --    0.57247   0.57716   0.57799   0.58240   0.58562
 Alpha virt. eigenvalues --    0.58718   0.58823   0.59012   0.59269   0.59459
 Alpha virt. eigenvalues --    0.59633   0.59690   0.59718   0.59825   0.60035
 Alpha virt. eigenvalues --    0.60310   0.60626   0.61052   0.61167   0.61521
 Alpha virt. eigenvalues --    0.61739   0.62075   0.62513   0.63056   0.63432
 Alpha virt. eigenvalues --    0.63894   0.63933   0.64129   0.64778   0.65209
 Alpha virt. eigenvalues --    0.65491   0.66011   0.66467   0.67808   0.68105
 Alpha virt. eigenvalues --    0.68702   0.69369   0.69580   0.69764   0.69927
 Alpha virt. eigenvalues --    0.70648   0.71359   0.72185   0.72513   0.72794
 Alpha virt. eigenvalues --    0.73322   0.74413   0.75357   0.75551   0.77505
 Alpha virt. eigenvalues --    0.78032   0.78333   0.78975   0.79116   0.79624
 Alpha virt. eigenvalues --    0.80099   0.80355   0.80837   0.81973   0.82106
 Alpha virt. eigenvalues --    0.82413   0.82437   0.82634   0.82725   0.82836
 Alpha virt. eigenvalues --    0.83096   0.83650   0.83767   0.83915   0.84245
 Alpha virt. eigenvalues --    0.84279   0.84748   0.85430   0.85618   0.85693
 Alpha virt. eigenvalues --    0.86271   0.86748   0.86981   0.87374   0.87472
 Alpha virt. eigenvalues --    0.87709   0.87843   0.88245   0.88953   0.89568
 Alpha virt. eigenvalues --    0.89740   0.90461   0.90463   0.90818   0.90956
 Alpha virt. eigenvalues --    0.91355   0.91484   0.91813   0.91964   0.92722
 Alpha virt. eigenvalues --    0.92813   0.93067   0.93393   0.94018   0.94038
 Alpha virt. eigenvalues --    0.94169   0.94305   0.94593   0.95195   0.95378
 Alpha virt. eigenvalues --    0.95708   0.96355   0.96447   0.96903   0.97470
 Alpha virt. eigenvalues --    0.98172   0.98355   0.99039   0.99478   1.00128
 Alpha virt. eigenvalues --    1.00290   1.00440   1.01122   1.01314   1.02995
 Alpha virt. eigenvalues --    1.03380   1.03841   1.04122   1.04381   1.04936
 Alpha virt. eigenvalues --    1.06234   1.07549   1.08435   1.09195   1.09759
 Alpha virt. eigenvalues --    1.10675   1.11029   1.11207   1.11447   1.11876
 Alpha virt. eigenvalues --    1.12737   1.13035   1.13487   1.13624   1.14120
 Alpha virt. eigenvalues --    1.14690   1.14912   1.16028   1.16102   1.16311
 Alpha virt. eigenvalues --    1.16424   1.16562   1.18671   1.19020   1.20065
 Alpha virt. eigenvalues --    1.22027   1.22772   1.22918   1.23165   1.23383
 Alpha virt. eigenvalues --    1.26003   1.26394   1.27193   1.28815   1.29788
 Alpha virt. eigenvalues --    1.29987   1.30400   1.31911   1.32477   1.32628
 Alpha virt. eigenvalues --    1.32903   1.35396   1.36099   1.38234   1.38660
 Alpha virt. eigenvalues --    1.39998   1.40287   1.40623   1.42251   1.42380
 Alpha virt. eigenvalues --    1.42619   1.43095   1.44235   1.44313   1.44506
 Alpha virt. eigenvalues --    1.45232   1.45999   1.46158   1.46578   1.46771
 Alpha virt. eigenvalues --    1.47460   1.47580   1.47704   1.48973   1.49046
 Alpha virt. eigenvalues --    1.49143   1.49523   1.49574   1.50746   1.51030
 Alpha virt. eigenvalues --    1.51347   1.52166   1.53693   1.54479   1.55898
 Alpha virt. eigenvalues --    1.57975   1.58135   1.58780   1.60910   1.62275
 Alpha virt. eigenvalues --    1.62395   1.62740   1.63874   1.64278   1.66356
 Alpha virt. eigenvalues --    1.66913   1.67837   1.69676   1.69846   1.72091
 Alpha virt. eigenvalues --    1.73866   1.74029   1.75455   1.76695   1.76788
 Alpha virt. eigenvalues --    1.77244   1.78386   1.78477   1.78775   1.79694
 Alpha virt. eigenvalues --    1.79831   1.80139   1.80290   1.80511   1.80894
 Alpha virt. eigenvalues --    1.81043   1.81330   1.81962   1.82654   1.83438
 Alpha virt. eigenvalues --    1.83987   1.84154   1.84528   1.84779   1.85095
 Alpha virt. eigenvalues --    1.85506   1.85992   1.86806   1.87535   1.87890
 Alpha virt. eigenvalues --    1.88213   1.88782   1.89731   1.89794   1.90100
 Alpha virt. eigenvalues --    1.91125   1.93845   1.94535   1.95133   1.95801
 Alpha virt. eigenvalues --    1.95861   1.96203   1.96332   1.96425   1.96880
 Alpha virt. eigenvalues --    1.97307   1.97956   1.98434   1.98604   1.99010
 Alpha virt. eigenvalues --    1.99899   2.00173   2.00564   2.00923   2.01199
 Alpha virt. eigenvalues --    2.01321   2.01614   2.01882   2.01989   2.02712
 Alpha virt. eigenvalues --    2.03373   2.04244   2.04665   2.04836   2.05196
 Alpha virt. eigenvalues --    2.05563   2.05796   2.06978   2.07854   2.08687
 Alpha virt. eigenvalues --    2.09227   2.09709   2.09913   2.10400   2.10439
 Alpha virt. eigenvalues --    2.10921   2.11244   2.11939   2.12875   2.13060
 Alpha virt. eigenvalues --    2.13247   2.13279   2.13613   2.13768   2.13815
 Alpha virt. eigenvalues --    2.13981   2.14645   2.14874   2.14967   2.15217
 Alpha virt. eigenvalues --    2.15850   2.16093   2.16213   2.17135   2.17490
 Alpha virt. eigenvalues --    2.18165   2.18694   2.19347   2.20013   2.21354
 Alpha virt. eigenvalues --    2.21743   2.22137   2.23110   2.23650   2.23738
 Alpha virt. eigenvalues --    2.24300   2.25537   2.26128   2.26971   2.27629
 Alpha virt. eigenvalues --    2.27886   2.27989   2.29360   2.29429   2.29720
 Alpha virt. eigenvalues --    2.30569   2.31561   2.31910   2.32675   2.33124
 Alpha virt. eigenvalues --    2.34698   2.37802   2.40301   2.40903   2.41604
 Alpha virt. eigenvalues --    2.42397   2.44653   2.45791   2.45835   2.46864
 Alpha virt. eigenvalues --    2.47379   2.47632   2.53014   2.53420   2.54718
 Alpha virt. eigenvalues --    2.54768   2.56287   2.56779   2.57038   2.57869
 Alpha virt. eigenvalues --    2.58007   2.61978   2.63173   2.63236   2.63371
 Alpha virt. eigenvalues --    2.63818   2.64907   2.66646   2.66804   2.66956
 Alpha virt. eigenvalues --    2.67716   2.68211   2.69093   2.69500   2.69857
 Alpha virt. eigenvalues --    2.69928   2.70002   2.70442   2.71621   2.72576
 Alpha virt. eigenvalues --    2.72885   2.73236   2.74103   2.75121   2.75367
 Alpha virt. eigenvalues --    2.75513   2.77687   2.78582   2.79470   2.80059
 Alpha virt. eigenvalues --    2.80103   2.80351   2.82040   2.83532   2.86532
 Alpha virt. eigenvalues --    2.88128   2.88710   2.96446   2.97826   2.98702
 Alpha virt. eigenvalues --    2.99739   3.00407   3.00653   3.01318   3.02313
 Alpha virt. eigenvalues --    3.02474   3.07045   3.08202   3.12341   3.13183
 Alpha virt. eigenvalues --    3.18211   3.18609   3.21119   3.22109   3.37690
 Alpha virt. eigenvalues --    3.38095   3.38286  15.60873  15.61594  15.70784
 Alpha virt. eigenvalues --   43.19028
          Condensed to atoms (all electrons):
 Mulliken charges:
               1
     1  Au  -0.110086
     2  S   -0.136610
     3  P    0.305140
     4  O   -0.455892
     5  O   -0.454587
     6  O   -0.424723
     7  O   -0.452897
     8  O   -0.428349
     9  O   -0.466925
    10  O   -0.421175
    11  O   -0.429830
    12  O   -0.445119
    13  C   -0.027945
    14  C    0.097837
    15  C    0.079270
    16  C    0.098385
    17  C    0.097366
    18  C    0.586054
    19  C   -0.538195
    20  C    0.561430
    21  C   -0.534900
    22  C    0.564723
    23  C   -0.533974
    24  C   -0.044263
    25  C    0.570821
    26  C   -0.533556
    27  H    0.162016
    28  H    0.203096
    29  H    0.179493
    30  H    0.202962
    31  H    0.129290
    32  H    0.178308
    33  H    0.193756
    34  H    0.179242
    35  H    0.188568
    36  H    0.191363
    37  H    0.178743
    38  H    0.182162
    39  H    0.183750
    40  H    0.189876
    41  H    0.166960
    42  H    0.160899
    43  H    0.177801
    44  H    0.187961
    45  H    0.194227
    46  C   -0.071928
    47  C   -0.155315
    48  C   -0.156580
    49  C   -0.124569
    50  H    0.184256
    51  C   -0.123557
    52  H    0.152005
    53  C   -0.124633
    54  H    0.154718
    55  H    0.140167
    56  H    0.143623
    57  C   -0.071132
    58  C   -0.156826
    59  C   -0.154745
    60  C   -0.123300
    61  H    0.152925
    62  C   -0.121146
    63  H    0.185037
    64  C   -0.124657
    65  H    0.140498
    66  H    0.147016
    67  H    0.142376
    68  C   -0.074694
    69  C   -0.154852
    70  C   -0.156855
    71  C   -0.122302
    72  H    0.186315
    73  C   -0.123428
    74  H    0.154409
    75  C   -0.124800
    76  H    0.145883
    77  H    0.141174
    78  H    0.142444
 Sum of Mulliken charges =   0.00000
 Mulliken charges with hydrogens summed into heavy atoms:
               1
     1  Au  -0.110086
     2  S   -0.136610
     3  P    0.305140
[...]
 0422,0.00164579,-0.00062686,-0.00517711,-0.01127971,0.02651747,-0.0121
 0366,0.00042984,-0.00076893,-0.00073890,-0.04534604,0.11517508,-0.1337
 5588,-0.00037096,-0.00042935,0.00108931,0.00195830,-0.00239095,-0.0010
 9050,-0.00016359,0.00006267,0.00009447,0.00563432,-0.01372247,0.012180
 60,0.04815307,-0.12429400,0.13854309,0.00001184,-0.00002968,-0.0000376
 8,-0.00003060,0.00001033,0.00000786,0.00027053,0.00029583,-0.00039584,
 -0.00002394,-0.00004493,-0.00002524,-0.00000808,-0.00000724,-0.0000036
 4,-0.00000449,-0.00000110,0.00000054,-0.00001175,-0.00000421,-0.000007
 62,-0.00000179,-0.00000264,-0.00000866,-0.00001112,-0.00001220,-0.0000
 1198,-0.00000113,-0.00000378,-0.00000722,0.00000316,-0.00000240,-0.000
 02020,-0.00000288,-0.00001202,-0.00002250,0.00002453,0.00004007,0.0000
 2456,0.00000506,-0.00000157,-0.00000345,0.00000556,0.00000977,0.000004
 69,0.00000403,0.00000565,0.00000548,0.00001709,0.00001853,0.00002585,0
 .00000560,0.00000006,-0.00000085,0.00000104,-0.00000054,0.00000022,0.0
 0000620,-0.00000073,0.00001203,-0.00000016,0.00000100,-0.00000052,0.00
 000706,0.00000645,0.00000934,-0.00000367,0.00000091,-0.00000023,-0.000
 01038,0.00000487,0.00001362,-0.00000084,0.00000218,0.00002133,0.000002
 07,0.00000069,-0.00000263,-0.00000014,-0.00000355,-0.00000305,0.000001
 33,0.00000020,-0.00000064,-0.00000009,-0.00000020,0.00000049,0.0000004
 0,0.00000009,-0.00000084,-0.00000156,0.00000365,-0.00000401,-0.0000001
 6,-0.00000006,0.00000031,-0.00000018,-0.00000101,-0.00000009,0.0000003
 7,0.00000020,-0.00000045,-0.00000026,0.00000011,0.00000060,0.00000027,
 -0.00000015,-0.00000047,-0.00000031,0.00000034,0.00000020,0.00000034,-
 0.00000042,-0.00000085,-0.00000042,-0.00000006,-0.00000073,-0.00000025
 ,-0.00000002,0.00000079,0.00000340,0.00000454,0.00000984,-0.00000832,-
 0.00000250,-0.00000072,0.00000074,0.00000161,0.00000045,0.00000148,-0.
 00000011,-0.00000114,-0.00000095,0.00000090,-0.00000014,0.00000621,-0.
 00002604,0.00006277,0.00003311,-0.00001107,0.00001282,-0.00003277,0.00
 004539,-0.00001159,-0.00000823,0.00001076,-0.00001249,-0.00000020,0.00
 001060,0.00000629,-0.00000881,-0.00003364,-0.00000088,-0.00000351,0.00
 000103,-0.00000037,0.00002477,-0.00000805,-0.00000361,-0.00000266,-0.0
 0000587,0.00000991,0.00000019,-0.00000058,-0.00000082,0.00000144,-0.00
 000379,0.00000601,0.00000018,-0.00001130,0.00019195,-0.00000782,-0.000
 02074,-0.00002997,0.00004530,-0.00001659,-0.00000167,-0.00000935,0.000
 00839,0.00000493,-0.00000184,0.00000111,0.00000565,-0.00000070,0.00002
 346,0.00000471,-0.00000257,-0.00000624,0.00000784,-0.00000285,-0.00000
 163,0.00000619,-0.00000307,-0.00000322,-0.00000370,0.00000152,0.000006
 82,0.00000390,0.00000316,-0.00000061,0.00000340,0.00600749,0.00210730,
 0.00116317,-0.00029881,-0.00037073,-0.00028811,0.00159561,0.00188017,0
 .00026536,0.00554931,0.00365866,-0.00109428,-0.00100640,-0.00048896,-0
 .00007602,-0.08831609,0.09885236,0.05703913,-0.00309513,-0.00179829,-0
 .00037357,-0.00113035,0.00690384,0.00584250,0.00004269,0.00041030,0.00
 033497,0.08335564,-0.00004644,-0.00000269,-0.00004594,0.00003137,0.000
 00708,0.00000791,0.00006910,0.00016775,0.00041022,0.00002297,0.0000197
 5,0.00000604,0.00001545,-0.00001578,-0.00001258,0.00000858,-0.00000357
 ,-0.00001188,0.00003093,-0.00000532,0.00000662,0.00000953,-0.00000198,
 0.00000762,0.00002937,0.00001134,0.00000812,0.00001198,0.00000502,-0.0
 0000277,0.00000853,0.00000537,-0.00000348,0.00001825,0.00000659,-0.000
 00681,-0.00001603,-0.00003177,-0.00000997,-0.00000519,0.00001519,0.000
 00479,-0.00001253,-0.00000365,0.00000154,-0.00001001,-0.00000448,-0.00
 000962,-0.00001764,-0.00001004,-0.00000545,-0.00001432,0.00001752,0.00
 002473,-0.00000136,-0.00000227,-0.00000063,-0.00002503,0.00000766,-0.0
 0001405,0.00000287,-0.00000015,-0.00000097,-0.00003074,-0.00001242,0.0
 0000002,0.00000274,0.00000004,0.00000223,-0.00000414,-0.00000524,0.000
 00055,-0.00001891,-0.00000419,0.00001181,0.00000158,-0.00000105,-0.000
 00343,-0.00000148,0.00000283,0.00000004,-0.00000102,-0.00000020,0.0000
 0163,-0.00000063,0.00000056,-0.00000142,-0.00000016,-0.00000006,0.0000
 0116,0.00000045,0.00000086,-0.00000093,0.00000090,-0.00000064,-0.00000
 104,0.00000008,0.00000162,0.00000092,-0.00000081,0.00000038,0.00000052
 ,-0.00000027,0.00000007,0.00000005,-0.00000064,-0.00000012,0.00000031,
 0.00000103,-0.00000070,0.00000020,-0.00000069,-0.00000018,-0.00000043,
 0.00000105,0.00000074,0.00000019,-0.00000051,-0.00000010,-0.00000046,-
 0.00000044,-0.00000293,-0.00000118,0.00000219,0.00000234,0.00000042,-0
 .00000100,-0.00000024,0.00000017,-0.00000090,-0.00000004,0.00000063,0.
 00000114,0.00000030,0.00000015,-0.00001552,-0.00000696,-0.00005947,-0.
 00002504,-0.00000557,-0.00000395,0.00004025,0.00002589,-0.00002281,-0.
 00000990,0.00000807,0.00000383,-0.00000548,-0.00000547,0.00000115,0.00
 000148,-0.00001620,0.00000500,0.00000329,-0.00000366,0.00000141,0.0000
 0699,0.00000288,0.00000090,-0.00000113,0.00000336,-0.00000035,-0.00000
 435,0.00000667,-0.00000265,-0.00000009,0.00000349,-0.00000139,0.000020
 29,0.00000949,0.00001587,-0.00001171,-0.00002307,-0.00003445,-0.000030
 37,-0.00001248,0.00001470,0.00001047,0.00001045,-0.00001002,0.00004384
 ,0.00000621,-0.00000063,-0.00000025,0.00000669,-0.00000267,0.00000336,
 -0.00000104,0.00001017,-0.00000753,-0.00000487,-0.00000086,-0.00001104
 ,-0.00000904,-0.00000218,-0.00000376,-0.00000124,-0.00000190,-0.000001
 66,-0.00000402,-0.00000120,0.00203703,0.00259672,0.00076940,-0.0003250
 8,-0.00001145,0.00081335,-0.00101543,0.00419068,0.00211937,0.00351170,
 -0.00118419,0.00415959,-0.00046330,-0.00022125,-0.00016272,0.09908058,
 -0.22530174,-0.10255379,-0.00180350,-0.00000204,-0.00048553,0.00977376
 ,-0.01507450,-0.01437669,0.00059535,-0.00078477,-0.00077540,-0.1095513
 5,0.23548367,-0.00009965,0.00003957,-0.00025797,0.00010295,-0.00001453
 ,0.00005920,0.00051166,-0.00091018,0.00016975,0.00003632,0.00004951,0.
 00002996,0.00002313,-0.00001664,-0.00000909,0.00001113,-0.00000730,-0.
 00001008,0.00003877,-0.00000266,0.00001366,0.00000839,-0.00000233,0.00
 001298,0.00002926,0.00001518,0.00001146,0.00000952,0.00000604,-0.00000
 167,-0.00000957,0.00001618,-0.00000501,-0.00000611,0.00001975,0.000010
 95,-0.00002087,-0.00008453,-0.00006596,-0.00000330,0.00002780,0.000022
 13,-0.00001332,-0.00001281,-0.00000916,-0.00000968,-0.00000718,-0.0000
 0653,-0.00002558,-0.00001971,-0.00003282,-0.00001947,0.00002702,0.0000
 2496,-0.00000213,-0.00000321,-0.00000082,-0.00002548,0.00000937,-0.000
 02217,0.00000289,-0.00000105,-0.00000008,-0.00002592,-0.00001255,0.000
 00019,0.00000298,0.00000008,0.00000134,0.00000482,-0.00000993,0.000003
 37,0.00001520,-0.00001799,0.00000192,-0.00000066,-0.00000121,-0.000000
 75,0.00000453,0.00000644,0.00000835,-0.00000430,-0.00000024,0.00000267
 ,0.00000060,0.00000125,-0.00000085,-0.00000052,-0.00000045,0.00000124,
 0.00000233,-0.00000043,0.00000472,0.00000084,-0.00000111,-0.00000066,-
 0.00000022,0.00000244,-0.00000064,0.00000058,0.00000009,0.00000059,-0.
 00000012,-0.00000004,-0.00000002,-0.00000077,0.00000001,0.00000040,0.0
 0000131,-0.00000062,-0.00000003,-0.00000041,-0.00000008,0.00000023,0.0
 0000107,0.00000047,0.00000063,-0.00000019,0.00000006,-0.00000054,0.000
 00009,-0.00000521,-0.00000525,0.00000466,0.00000452,-0.00000012,-0.000
 00100,-0.00000044,-0.00000115,-0.00000184,-0.00000021,0.00000180,0.000
 00092,-0.00000046,0.00000056,-0.00002752,-0.00000708,-0.00000143,-0.00
 006126,0.00002067,0.00000950,0.00006829,0.00003279,0.00001776,-0.00000
 649,0.00001451,0.00000805,-0.00000848,-0.00001813,-0.00001189,-0.00000
 417,0.00003380,0.00001188,0.00000052,-0.00002425,-0.00001172,-0.000007
 27,0.00003872,-0.00000447,0.00000337,0.00000860,-0.00000896,-0.0000121
 4,0.00001398,-0.00002086,-0.00000048,0.00000696,-0.00001044,0.00011931
 ,0.00003964,-0.00019601,-0.00001340,-0.00001589,-0.00006112,-0.0001240
 9,-0.00003256,-0.00001207,-0.00000092,-0.00000041,-0.00000032,0.000035
 28,-0.00000736,0.00000516,-0.00000177,-0.00001743,-0.00000697,-0.00000
 682,0.00001156,0.00002214,-0.00000977,-0.00000734,-0.00000863,-0.00001
 677,-0.00001116,-0.00000048,-0.00000982,-0.00000927,-0.00000657,-0.000
 00629,-0.00000283,-0.00000118,0.00059550,0.00125720,-0.00528309,-0.000
 31795,0.00076884,-0.00078385,0.01363755,-0.02605052,-0.01103358,-0.000
 59320,0.00309860,-0.00138167,-0.00006754,-0.00015653,0.00011889,0.0572
 3319,-0.10266659,-0.12351194,-0.00053014,0.00002197,0.00110933,-0.0076
 3913,0.01419384,0.01220769,-0.00041220,0.00079940,0.00049232,-0.062162
 82,0.11020706,0.12756224,0.00005211,0.00003864,0.00002423,-0.00004121,
 -0.00000725,-0.00001112,-0.00072834,-0.00026764,-0.00020238,-0.0000203
 5,-0.00002897,-0.00002943,-0.00000460,-0.00000623,-0.00000786,-0.00000
 185,0.00000061,-0.00000459,-0.00000927,-0.00000167,-0.00001089,0.00000
 205,-0.00000065,-0.00001394,-0.00000378,-0.00000520,-0.00001267,0.0000
 0248,-0.00000007,-0.00001178,-0.00000662,0.00000973,-0.00002492,-0.000
 01066,-0.00000001,-0.00000943,0.00001086,0.00003007,0.00004081,0.00000
 219,-0.00000484,-0.00000733,0.00000190,0.00000633,0.00000912,0.0000037
 6,0.00000673,0.00000346,0.00001093,0.00000603,0.00003689,0.00000137,0.
 00000079,0.00000743,0.00000120,-0.00000038,0.00000050,0.00000163,-0.00
 000209,0.00001870,0.00000076,0.00000113,-0.00000167,-0.00000184,0.0000
 0021,0.00001426,-0.00000326,0.00000141,-0.00000057,-0.00000505,-0.0000
 0426,0.00001469,0.00001753,-0.00000854,0.00001805,0.00000017,0.0000009
 0,-0.00000224,-0.00000051,-0.00000229,-0.00000693,0.00000209,-0.000000
 26,-0.00000097,-0.00000098,0.00000046,0.00000025,0.00000196,-0.0000005
 8,-0.00000117,-0.00000122,0.00000607,-0.00000689,0.00000010,-0.0000000
 3,-0.00000023,0.00000009,-0.00000063,0.00000067,-0.00000053,0.00000046
 ,-0.00000029,-0.00000012,0.00000016,0.00000053,0.00000018,-0.00000045,
 -0.00000041,-0.00000041,0.00000010,0.00000035,0.00000008,-0.00000241,-
 0.00000010,0.00000051,0.00000003,-0.00000119,-0.00000160,0.00000032,0.
 00000129,0.00000406,0.00000009,0.00000597,-0.00000523,-0.00000315,-0.0
 0000081,0.00000006,0.00000097,-0.00000053,0.00000083,0.00000016,-0.000
 00043,-0.00000042,-0.00000002,0.00000018,0.00001295,0.00005515,0.00000
 222,-0.00001391,-0.00003454,-0.00001452,0.00001443,-0.00003230,-0.0000
 1288,-0.00001150,0.00000970,-0.00000974,0.00000265,0.00000707,0.000000
 59,0.00000581,-0.00002171,0.00000780,-0.00000202,0.00000318,0.00000619
 ,0.00001519,0.00000352,0.00000574,0.00000046,-0.00000178,0.00000362,-0
 .00000057,-0.00000194,-0.00000284,0.00000072,-0.00000025,0.00000087,0.
 00002384,-0.00002617,-0.00018033,0.00000402,-0.00001094,-0.00000669,-0
 .00005389,-0.00002812,0.00000199,0.00000878,-0.00000151,-0.00000359,0.
 00002746,0.00001699,0.00000924,0.00000832,-0.00001036,-0.00001240,-0.0
 0000005,0.00000219,-0.00000338,-0.00000577,-0.00000188,-0.00000293,-0.
 00000650,-0.00000161,-0.00000221,-0.00000521,-0.00000166,-0.00000164,-
 0.00000017,0.00000009,-0.00000084,-0.00087163,0.00011802,0.00000528,0.
 00478744,0.00493823,0.00145893,0.00540046,0.00438420,-0.00054047,0.002
 30810,-0.00109819,0.01376692,-0.00005162,-0.00003358,0.00073412,0.0044
 6141,-0.00042805,-0.01079533,0.00013132,-0.00000913,-0.00049703,-0.044
 47869,0.00849470,0.02737110,-0.00284743,-0.00185081,-0.00059284,-0.002
 98411,-0.00190116,-0.00019539,0.03484863,0.00002308,0.00004961,0.00000
 611,-0.00000129,-0.00000518,-0.00001431,-0.00031191,-0.00019757,-0.000
 05559,0.00000417,-0.00000314,-0.00000364,0.00000447,-0.00000999,-0.000
 00422,0.00000126,-0.00000387,-0.00000204,0.00000674,-0.00000376,0.0000
 0149,0.00000136,-0.00000303,0.00000247,0.00000363,-0.00000180,-0.00000
 162,0.00000205,-0.00000046,-0.00000309,-0.00000614,0.00000641,-0.00001
 302,-0.00001237,0.00000045,-0.00000404,-0.00001333,-0.00000006,0.00000
 717,-0.00000275,0.00000493,-0.00000219,-0.00000322,0.00000254,0.000000
 38,-0.00000152,0.00000172,-0.00000001,-0.00000256,0.00000070,0.0000035
 2,-0.00000310,0.00001003,0.00000645,-0.00000060,-0.00000179,-0.0000003
 5,-0.00000552,0.00000349,-0.00000448,0.00000055,0.00000013,-0.00000004
 ,-0.00000380,-0.00000010,0.00000349,-0.00000077,0.00000054,0.00000047,
 -0.00000190,-0.00000196,0.00000868,0.00001497,-0.00000711,0.00000834,-
 0.00000019,0.00000018,-0.00000077,-0.00000091,0.00000149,0.00000124,0.
 00000002,-0.00000025,0.00000058,-0.00000002,0.00000041,-0.00000037,0.0
 0000039,-0.00000038,-0.00000006,-0.00000068,0.00000222,-0.00000138,0.0
 0000031,-0.00000033,-0.00000007,-0.00000028,0.00000057,-0.00000039,0.0
 0000064,0.00000023,0.00000005,-0.00000019,-0.00000001,0.00000028,-0.00
 000012,0.00000007,-0.00000012,0.00000040,0.00000005,0.00000006,0.00000
 006,0.00000014,-0.00000046,-0.00000001,0.00000010,-0.00000003,0.000000
 08,-0.00000003,0.00000004,0.00000241,-0.00000063,0.00000307,-0.0000027
 6,0.00000060,-0.00000058,0.00000037,0.00000085,-0.00000035,0.00000008,
 -0.00000027,0.00000017,-0.00000053,0.00000028,0.00000026,-0.00002799,0
 .00001673,0.00002657,0.00001348,0.00002038,-0.00000166,-0.00001539,0.0
 0001192,0.00002532,0.00000322,-0.00000236,-0.00000308,0.00000074,-0.00
 000232,-0.00000232,-0.00000993,0.00002274,0.00000397,-0.00000847,-0.00
 000769,-0.00001080,-0.00000495,0.00000548,-0.00000500,0.00000057,-0.00
 000102,0.00000242,0.00000122,0.00000066,-0.00000254,-0.00000048,-0.000
 00265,0.00000164,-0.00000370,0.00000511,-0.00008810,0.00000364,0.00000
 247,-0.00002259,-0.00002405,0.00000030,0.00000336,0.00000238,0.0000012
 9,0.00000715,0.00000642,-0.00001260,0.00000618,-0.00000003,-0.00000700
 ,-0.00000180,0.00000289,0.00000007,0.00000100,0.00000034,-0.00000233,-
 0.00000361,-0.00000451,0.00000042,-0.00000138,-0.00000181,-0.00000136,
 -0.00000069,-0.00000065,0.00000047,-0.00000008,0.00017798,-0.00114601,
 0.00004335,0.00482075,-0.00244271,-0.00159651,0.00452744,-0.00270143,0
 .00224735,0.00160130,0.00519581,-0.02576130,0.00007785,0.00015796,-0.0
 0126850,-0.00314806,0.00415526,0.02642188,-0.00013680,0.00010135,0.001
 30740,0.00850037,-0.05685332,0.00636802,-0.00190486,0.00012404,0.00026
 213,-0.00183833,0.00015609,-0.00063347,-0.01230114,0.05335825,-0.00004
 739,0.00003055,-0.00003439,0.00006684,-0.00001136,-0.00000204,-0.00006
 367,0.00000158,0.00023936,0.00004429,0.00003510,0.00002803,0.00002457,
 -0.00002211,-0.00001023,0.00001174,-0.00000896,-0.00000956,0.00004690,
 -0.00000847,0.00001682,0.00001019,-0.00000426,0.00002094,0.00003998,0.
 00001491,0.00001821,0.00001390,0.00000519,0.00000418,0.00002645,-0.000
 00831,0.00001866,0.00004838,0.00000675,-0.00000600,-0.00003881,-0.0000
 4935,-0.00003895,-0.00000977,0.00002382,0.00000926,-0.00001746,-0.0000
 0575,-0.00000468,-0.00001603,-0.00000912,-0.00001400,-0.00002975,-0.00
 001226,-0.00003304,-0.00001915,0.00002916,0.00002495,-0.00000284,-0.00
 000393,-0.00000105,-0.00003375,0.00001310,-0.00003349,0.00000315,-0.00
 000084,0.00000014,-0.00003773,-0.00001450,-0.00000935,0.00000517,-0.00
 000061,0.00000338,-0.00000377,0.00000096,-0.00001178,-0.00005903,0.000
 00808,0.00000322,0.00000317,-0.00000208,-0.00000366,0.00000064,0.00000
 571,0.00000790,-0.00000345,-0.00000009,0.00000307,0.00000031,0.0000004
 2,-0.00000191,-0.00000219,0.00000044,0.00000228,0.00000110,-0.00000334
 ,0.00000410,0.00000099,-0.00000107,-0.00000098,-0.00000025,0.00000263,
 -0.00000040,0.00000044,0.00000021,0.00000086,-0.00000043,-0.00000007,-
 0.00000018,-0.00000094,0.00000033,0.00000052,0.00000178,-0.00000085,0.
 00000005,-0.00000085,0.00000154,-0.00000068,0.00000090,0.00000092,0.00
 000104,0.00000063,-0.00000033,-0.00000128,-0.00000417,-0.00000379,-0.0
 0000512,0.00000562,0.00000465,0.00000183,-0.00000161,-0.00000160,0.000
 00109,-0.00000205,0.00000003,0.00000067,0.00000224,0.00000075,0.,-0.00
 001799,0.00000180,-0.00010151,-0.00004740,-0.00001221,-0.00000860,0.00
 005751,0.00000711,-0.00002558,-0.00001270,0.00000413,0.00000420,-0.000
 00789,-0.00000858,0.00000124,0.00001168,-0.00001406,0.00000168,0.00000
 724,0.00000284,0.00001201,0.00000360,0.00000303,0.00000300,-0.00000181
 ,0.00000727,-0.00000276,-0.00000581,0.00000624,-0.00000148,-0.00000036
 ,0.00000745,-0.00000339,0.00001375,0.00000328,-0.00007508,-0.00000742,
 -0.00001011,-0.00000004,-0.00004508,-0.00000676,0.00001453,0.00002261,
 -0.00000019,-0.00001700,0.00003912,0.00002028,-0.00000206,-0.00000446,
 -0.00000689,-0.00000161,0.00000142,0.00000354,0.00000591,-0.00000640,-
 0.00000583,-0.00000488,-0.00001201,-0.00000207,-0.00000036,-0.00000432
 ,-0.00000396,-0.00000556,-0.00000519,-0.00000334,-0.00000518,-0.000132
 81,-0.00004084,0.00074866,0.00184563,-0.00245274,0.00070074,-0.0008098
 2,0.00318863,0.00047386,0.00015847,0.00259412,-0.01077854,-0.00004782,
 0.00020788,-0.00058585,0.00248392,-0.00211871,-0.01192041,0.00016321,-
 0.00019137,-0.00061424,0.02749638,0.00644276,-0.33818660,-0.00028494,-
 0.00038232,0.00082185,-0.00048842,0.00001132,0.00084058,-0.03032619,-0
 .00726549,0.35852468\\-0.00000151,-0.00000175,-0.00000090,-0.00000214,
 0.00000140,0.00000121,0.00000360,0.00000465,0.00000154,-0.00000267,-0.
 00000279,-0.00000039,0.00000390,0.00000273,0.00000577,-0.00000414,0.00
 000034,0.00000247,0.00000115,0.00000041,-0.00000052,-0.00000028,-0.000
 00089,-0.00000064,-0.00000341,0.00000103,0.00000114,-0.00000111,-0.000
 00241,0.00000188,-0.00000152,0.00000192,-0.00000066,0.00000102,-0.0000
 0093,0.00000078,0.00000332,0.00000441,-0.00000235,-0.00000364,0.000000
 89,-0.00000252,-0.00000146,0.00000054,-0.00000027,0.00000194,-0.000006
 13,-0.00000345,0.00000051,-0.00000062,0.00000236,0.00000242,-0.0000017
 1,-0.00001164,0.00000130,0.00000165,0.00000031,-0.00000106,-0.00000169
 ,-0.00000226,0.00000092,0.00000135,0.00000010,0.00000412,0.00000151,-0
 .00000293,-0.00000042,-0.00000248,-0.00000025,0.00000014,-0.00000126,0
 .00000122,0.00000146,0.00000128,0.00000377,-0.00000026,0.00000043,0.00
 000158,-0.00000088,-0.00000097,-0.00000042,0.00000114,0.00000023,-0.00
 000112,0.00000061,0.00000008,-0.00000120,-0.00000014,0.00000050,0.0000
 0058,0.00000068,-0.00000064,-0.00000028,-0.00000037,0.00000026,-0.0000
 0240,-0.00000106,0.00000046,-0.00000462,-0.00000226,-0.00000003,-0.000
 00249,-0.00000084,-0.00000078,-0.00000275,-0.00000023,-0.00000060,-0.0
 0000189,-0.00000079,-0.00000047,-0.00000184,0.00000039,-0.00000247,0.0
 0000007,0.00000018,-0.00000134,0.00000028,0.00000108,-0.00000172,-0.00
 000038,-0.00000046,-0.00000100,-0.00000044,0.00000022,-0.00000052,0.00
 000017,-0.00000007,0.00000073,0.00000158,0.00000010,0.00000121,0.00000
 049,-0.00000008,0.00000060,0.00000141,-0.00000143,-0.00000076,0.000001
 46,0.00000004,0.00000201,-0.00000060,0.00000039,0.00000003,0.00000249,
 0.00000063,0.00000129,0.00000205,-0.00000002,-0.00000012,0.00000187,0.
 00000077,0.00000162,0.00000167,-0.00000013,0.00000099,0.00000096,-0.00
 000123,-0.00000012,0.00000222,0.00000026,0.00000021,0.00000137,0.00000
 015,0.00000084,0.00000222,0.00000032,0.00000096,0.00000241,0.00000036,
 -0.00000097,-0.00000120,0.00000172,0.00000070,0.00000066,-0.00000120,0
 .00000091,-0.00000068,-0.00000076,-0.00000009,-0.00000119,0.00000016,0
 .00000014,-0.00000021,0.00000064,0.00000180,-0.00000017,-0.00000036,0.
 00000134,-0.00000025,-0.00000115,0.00000161,0.00000152,-0.00000009,0.0
 0000055,0.00000008,-0.00000066,0.00000169,-0.00000044,-0.00000026,0.00
 000129,-0.00000050,-0.00000287,0.00000132,0.00000094,0.,-0.00000184,0.
 00000063,0.00000240,-0.00000135,-0.00000122,0.00000103,-0.00000206,-0.
 00000182,0.00000025,-0.00000039,-0.00000031,0.00000075,-0.00000206,0.0
 0000256,0.00000004,-0.00000077,0.00000155,-0.00000050,0.00000057,0.000
 00027,0.00000011,-0.00000147,-0.00000012,0.00000067,-0.00000127,0.0000
 0123,0.00000060,-0.00000201,0.00000049\\\@


 NOTHING PUZZLES ME MORE THAN TIME AND SPACE; AND YET NOTHING TROUBLES ME LESS
                                                          -- CHARLES LAMB (1810)
 Job cpu time:       0 days 13 hours 11 minutes 23.5 seconds.
 File lengths (MBytes):  RWF=   4611 Int=      0 D2E=      0 Chk=     43 Scr=      1
 Normal termination of Gaussian 09 at Mon Apr  3 23:02:01 2023.
