 Entering Gaussian System, Link 0=g09
 Input=au-1to3-ts-2-af31-c-term-level3-freq-se.com
 Output=au-1to3-ts-2-af31-c-term-level3-freq-se.log
 Initial command:
 /home/scr/programs/g09/l1.exe "/home/scr/guest2/Gau-20830.inp" -scrdir="/home/scr/guest2/"
 Entering Link 1 = /home/scr/programs/g09/l1.exe PID=     20831.
  
 Copyright (c) 1988,1990,1992,1993,1995,1998,2003,2009,2013,
            Gaussian, Inc.  All Rights Reserved.
  
 This is part of the Gaussian(R) 09 program.  It is based on
 the Gaussian(R) 03 system (copyright 2003, Gaussian, Inc.),
 the Gaussian(R) 98 system (copyright 1998, Gaussian, Inc.),
 the Gaussian(R) 94 system (copyright 1995, Gaussian, Inc.),
 the Gaussian 92(TM) system (copyright 1992, Gaussian, Inc.),
 the Gaussian 90(TM) system (copyright 1990, Gaussian, Inc.),
 the Gaussian 88(TM) system (copyright 1988, Gaussian, Inc.),
 the Gaussian 86(TM) system (copyright 1986, Carnegie Mellon
 University), and the Gaussian 82(TM) system (copyright 1983,
 Carnegie Mellon University). Gaussian is a federally registered
 trademark of Gaussian, Inc.
  
 This software contains proprietary and confidential information,
 including trade secrets, belonging to Gaussian, Inc.
  
 This software is provided under written license and may be
 used, copied, transmitted, or stored only in accord with that
 written license.
  
 The following legend is applicable only to US Government
 contracts under FAR:
  
                    RESTRICTED RIGHTS LEGEND
  
 Use, reproduction and disclosure by the US Government is
 subject to restrictions as set forth in subparagraphs (a)
 and (c) of the Commercial Computer Software - Restricted
 Rights clause in FAR 52.227-19.
  
 Gaussian, Inc.
 340 Quinnipiac St., Bldg. 40, Wallingford CT 06492
  
  
 ---------------------------------------------------------------
 Warning -- This program may not be used in any manner that
 competes with the business of Gaussian, Inc. or will provide
 assistance to any competitor of Gaussian, Inc.  The licensee
 of this program is prohibited from giving any competitor of
 Gaussian, Inc. access to this program.  By using this program,
 the user acknowledges that Gaussian, Inc. is engaged in the
 business of creating and licensing software in the field of
 computational chemistry and represents and warrants to the
 licensee that it is not a competitor of Gaussian, Inc. and that
 it will not use this program in any manner prohibited above.
 ---------------------------------------------------------------
  

 Cite this work as:
 Gaussian 09, Revision D.01,
 M. J. Frisch, G. W. Trucks, H. B. Schlegel, G. E. Scuseria, 
 M. A. Robb, J. R. Cheeseman, G. Scalmani, V. Barone, B. Mennucci, 
 G. A. Petersson, H. Nakatsuji, M. Caricato, X. Li, H. P. Hratchian, 
 A. F. Izmaylov, J. Bloino, G. Zheng, J. L. Sonnenberg, M. Hada, 
 M. Ehara, K. Toyota, R. Fukuda, J. Hasegawa, M. Ishida, T. Nakajima, 
 Y. Honda, O. Kitao, H. Nakai, T. Vreven, J. A. Montgomery, Jr., 
 J. E. Peralta, F. Ogliaro, M. Bearpark, J. J. Heyd, E. Brothers, 
 K. N. Kudin, V. N. Staroverov, T. Keith, R. Kobayashi, J. Normand, 
 K. Raghavachari, A. Rendell, J. C. Burant, S. S. Iyengar, J. Tomasi, 
 M. Cossi, N. Rega, J. M. Millam, M. Klene, J. E. Knox, J. B. Cross, 
 V. Bakken, C. Adamo, J. Jaramillo, R. Gomperts, R. E. Stratmann, 
 O. Yazyev, A. J. Austin, R. Cammi, C. Pomelli, J. W. Ochterski, 
 R. L. Martin, K. Morokuma, V. G. Zakrzewski, G. A. Voth, 
 P. Salvador, J. J. Dannenberg, S. Dapprich, A. D. Daniels, 
 O. Farkas, J. B. Foresman, J. V. Ortiz, J. Cioslowski, 
 and D. J. Fox, Gaussian, Inc., Wallingford CT, 2013.
 
 ******************************************
 Gaussian 09:  EM64L-G09RevD.01 24-Apr-2013
                21-Mar-2023 
 ******************************************
 %mem=30000MB
 %nprocshared=15
 Will use up to   15 processors via shared memory.
 %chk=au-1to3-ts-2-af31-c-term-level3-freq-se.chk
 ----------------------------------------------------------------
 # opt=(ts,readfc,noeigentest) freq=noraman b3lyp/gen pseudo=read
 ----------------------------------------------------------------
 1/5=1,10=3,11=1,14=-1,18=20,26=3,38=1/1,3;
 2/9=110,12=2,17=6,18=5,40=1/2;
 3/5=7,11=2,16=1,17=8,25=1,30=1,71=1,74=-5/1,2,3;
 4//1;
 5/5=2,38=5/2;
 6/7=2,8=2,9=2,10=2,28=1/1;
 7//1,2,3,16;
 1/5=1,11=1,14=-1,18=20,26=3/3(2);
 2/9=110/2;
 99//99;
 2/9=110/2;
 3/5=7,6=1,11=2,16=1,17=8,25=1,30=1,71=1,74=-5,82=7/1,2,3;
 4/5=5,16=3,69=1/1;
 5/5=2,38=5/2;
 7//1,2,3,16;
 1/5=1,11=1,14=-1,18=20,26=3/3(-5);
 2/9=110/2;
 6/7=2,8=2,9=2,10=2,19=2,28=1/1;
 99/9=1/99;
 -------------------
 Title Card Required
 -------------------
 Symbolic Z-matrix:
 Charge =  0 Multiplicity = 1
 Au                    0.30088  -1.96515  -0.22939 
 P                     0.59881  -4.03022  -1.36591 
 C                     2.38372  -4.51778  -1.41714 
 H                     2.45624  -5.53905  -1.81267 
 H                     2.71415  -4.53589  -0.37279 
 C                    -0.00752  -4.06699  -3.12426 
 H                     0.46731  -3.21661  -3.62688 
 H                    -1.07825  -3.8322   -3.08056 
 C                     0.23318  -5.36141  -3.91346 
 H                    -0.14874  -5.25267  -4.9348 
 H                     1.29925  -5.60165  -3.98433 
 H                    -0.27801  -6.21777  -3.46184 
 C                     3.26846  -3.54534  -2.20863 
 H                     3.25851  -2.55184  -1.75055 
 H                     4.30447  -3.90062  -2.20152 
 H                     2.95581  -3.46109  -3.25606 
 S                     2.21114  -1.89788   1.39854 
 O                     3.76974  -0.47766  -0.22499 
 O                     3.06741   0.55376   3.22271 
 O                     4.20486  -0.84457   4.61249 
 O                     5.64378   1.75002   2.66491 
 O                     4.73675   3.78626   3.12341 
 O                     5.87183   2.5124   -0.12557 
 O                     8.00942   1.76855   0.10192 
 O                     6.08742  -0.28634  -2.0228 
 O                     7.26481   1.2734   -3.18244 
 C                     2.98192  -0.32013   0.96539 
 C                     3.88926   0.1988    2.10303 
 C                     4.64542   1.46216   1.67206 
 C                     5.33956   1.25411   0.32916 
 C                     4.31855   0.74745  -0.69943 
 C                     3.30228  -0.06609   4.4139 
 C                     2.27009   0.36311   5.4286 
 C                     5.57742   2.93983   3.32336 
 C                     6.70205   3.03128   4.32669 
 C                     7.22676   2.63415  -0.22135 
 C                     7.59706   3.96282  -0.82838 
 C                     4.90143   0.52464  -2.08764 
 C                     7.21899   0.21992  -2.58345 
 C                     8.39763  -0.68024  -2.31777 
 H                     2.19257   0.42823   0.76773 
 H                     4.59706  -0.57651   2.40381 
 H                     3.95852   2.31142   1.61523 
 H                     6.15392   0.53523   0.42835 
 H                     3.51617   1.4989   -0.80928 
 H                     2.55789   0.00084   6.41635 
 H                     1.29717  -0.05937   5.15379 
 H                     2.16624   1.45222   5.43584 
 H                     7.66567   2.91655   3.81967 
 H                     6.61925   2.21561   5.05268 
 H                     6.65812   3.99354   4.83801 
 H                     7.55966   3.85326  -1.91875 
 H                     8.61651   4.22379  -0.53928 
 H                     6.89663   4.74757  -0.53347 
 H                     4.16912  -0.01022  -2.69938 
 H                     5.1449    1.47887  -2.55717 
 H                     9.14668  -0.54115  -3.09946 
 H                     8.09605  -1.72778  -2.24935 
 H                     8.83291  -0.3797   -1.35761 
 N                    -10.37525  -0.67404   2.53966 
 C                    -9.17994  -0.42477   1.73112 
 C                    -7.90155  -0.51948   2.58453 
 O                    -7.87732  -0.03066   3.70843 
 C                    -9.2956    0.99671   1.13724 
 O                    -8.20792   1.349     0.29812 
 N                    -6.79004  -1.17127   2.09732 
 C                    -6.61408  -1.84613   0.82116 
 C                    -6.46119  -0.91677  -0.39485 
 O                    -7.31772  -0.93037  -1.27805 
 N                    -5.36729  -0.09864  -0.50731 
 C                    -4.45022   0.36743   0.5416 
 C                    -3.7009    1.62395   0.07111 
 O                    -3.48306   2.55715   0.82755 
 C                    -3.40284  -0.69093   0.98459 
 S                    -2.32163  -1.3562   -0.37134 
 N                    -3.26114   1.58084  -1.23342 
 C                    -2.04926   2.31247  -1.61231 
 C                    -0.84261   1.36525  -1.66646 
 C                    -2.27526   2.95429  -2.99785 
 O                    -1.94018   2.37131  -4.02283 
 N                    -2.89039   4.16808  -3.01263 
 C                    -3.37885   4.93747  -1.8864 
 C                    -4.31048   6.01877  -2.40458 
 O                    -4.54962   6.22328  -3.57404 
 O                    -4.82669   6.73784  -1.39239 
 H                    -10.26145   1.06187   0.61877 
 H                    -9.30009   1.72078   1.95845 
 H                    -8.25003   0.78564  -0.49405 
 H                    -9.16743  -1.1392    0.90155 
 H                    -10.24856  -0.18277   3.4258 
 H                    -10.42936  -1.66299   2.77946 
 H                    -7.47099  -2.48302   0.58914 
 H                    -5.74217  -2.50152   0.90613 
 H                    -6.02729  -1.19025   2.76389 
 H                    -3.90571  -1.56654   1.40412 
 H                    -2.78225  -0.26158   1.77423 
 H                    -5.01193   0.67479   1.42903 
 H                    -5.49124   0.53779  -1.2883 
 H                     0.07296   1.91907  -1.89315 
 H                    -0.96861   0.60567  -2.43866 
 H                    -1.9       3.07239  -0.84203 
 H                    -3.34069   0.67717  -1.69107 
 H                    -2.56976   5.43601  -1.33236 
 H                    -3.91979   4.32323  -1.15785 
 H                    -3.11662   4.54098  -3.93001 
 H                    -5.40616   7.41467  -1.79136 
 Se                   -0.49102   0.4626    0.07586 
 C                    -0.24671  -5.42284  -0.55469 
 C                     0.34888  -6.68432  -0.53459 
 C                    -1.49007  -5.22901   0.04701 
 C                    -0.29911  -7.75183   0.08651 
 H                     1.32877  -6.83699  -1.00972 
 C                    -2.13794  -6.29651   0.6692 
 H                    -1.95955  -4.2348    0.03142 
 C                    -1.54276  -7.55783   0.68892 
 H                     0.17     -8.74631   0.10184 
 H                    -3.11807  -6.14329   1.14389 
 H                    -2.05346  -8.39965   1.17863 
 

 GradGradGradGradGradGradGradGradGradGradGradGradGradGradGradGradGradGrad
 Berny optimization.
 Initialization pass.
 No redundant coordinates on chk file, so ReadFC converted to ReadCartesianFC.
 Cartesian force constants read from checkpoint file:
 "au-1to3-ts-2-af31-c-term-level3-freq-se.chk"
 FormGI is forming the generalized inverse of G from B-inverse, IUseBI=4.
                           ----------------------------
                           !    Initial Parameters    !
                           ! (Angstroms and Degrees)  !
 --------------------------                            --------------------------
 ! Name  Definition              Value          Derivative Info.                !
 --------------------------------------------------------------------------------
 ! R1    R(1,2)                  2.3759         D2E/DX2 =    0.0901             !
 ! R2    R(1,17)                 2.5107         D2E/DX2 =    0.066              !
 ! R3    R(1,75)                 2.696          D2E/DX2 =    0.0358             !
 ! R4    R(1,107)                2.5718         D2E/DX2 =    0.0656             !
 ! R5    R(2,3)                  1.851          D2E/DX2 =    0.1878             !
 ! R6    R(2,6)                  1.8603         D2E/DX2 =    0.1839             !
 ! R7    R(2,108)                1.82           D2E/DX2 =    0.2299             !
 ! R8    R(3,4)                  1.0976         D2E/DX2 =    0.3335             !
 ! R9    R(3,5)                  1.0955         D2E/DX2 =    0.34               !
 ! R10   R(3,13)                 1.5346         D2E/DX2 =    0.2832             !
 ! R11   R(6,7)                  1.096          D2E/DX2 =    0.3374             !
 ! R12   R(6,8)                  1.097          D2E/DX2 =    0.3355             !
 ! R13   R(6,9)                  1.535          D2E/DX2 =    0.277              !
 ! R14   R(9,10)                 1.0958         D2E/DX2 =    0.3395             !
 ! R15   R(9,11)                 1.0951         D2E/DX2 =    0.3419             !
 ! R16   R(9,12)                 1.0948         D2E/DX2 =    0.343              !
 ! R17   R(13,14)                1.0941         D2E/DX2 =    0.3465             !
 ! R18   R(13,15)                1.0953         D2E/DX2 =    0.3411             !
 ! R19   R(13,16)                1.0963         D2E/DX2 =    0.3386             !
 ! R20   R(17,27)                1.8086         D2E/DX2 =    0.2072             !
 ! R21   R(18,27)                1.4361         D2E/DX2 =    0.2472             !
 ! R22   R(18,31)                1.4238         D2E/DX2 =    0.2763             !
 ! R23   R(19,28)                1.4336         D2E/DX2 =    0.3159             !
 ! R24   R(19,32)                1.3632         D2E/DX2 =    0.3801             !
 ! R25   R(20,32)                1.2084         D2E/DX2 =    0.8722             !
 ! R26   R(21,29)                1.4371         D2E/DX2 =    0.3098             !
 ! R27   R(21,34)                1.3615         D2E/DX2 =    0.3837             !
 ! R28   R(22,34)                1.2096         D2E/DX2 =    0.8668             !
 ! R29   R(23,30)                1.4399         D2E/DX2 =    0.3084             !
 ! R30   R(23,36)                1.3638         D2E/DX2 =    0.3781             !
 ! R31   R(24,36)                1.2109         D2E/DX2 =    0.858              !
 ! R32   R(25,38)                1.4382         D2E/DX2 =    0.3185             !
 ! R33   R(25,39)                1.3605         D2E/DX2 =    0.3871             !
 ! R34   R(26,39)                1.2127         D2E/DX2 =    0.8506             !
 ! R35   R(27,28)                1.5449         D2E/DX2 =    0.2238             !
 ! R36   R(27,41)                1.1055         D2E/DX2 =    0.306              !
 ! R37   R(28,29)                1.5341         D2E/DX2 =    0.2388             !
 ! R38   R(28,42)                1.092          D2E/DX2 =    0.3475             !
 ! R39   R(29,30)                1.5259         D2E/DX2 =    0.2481             !
 ! R40   R(29,43)                1.0938         D2E/DX2 =    0.3429             !
 ! R41   R(30,31)                1.5353         D2E/DX2 =    0.2444             !
 ! R42   R(30,44)                1.0908         D2E/DX2 =    0.3512             !
 ! R43   R(31,38)                1.522          D2E/DX2 =    0.2922             !
 ! R44   R(31,45)                1.1048         D2E/DX2 =    0.3134             !
 ! R45   R(32,33)                1.5097         D2E/DX2 =    0.2912             !
 ! R46   R(33,46)                1.0907         D2E/DX2 =    0.3541             !
 ! R47   R(33,47)                1.0957         D2E/DX2 =    0.3422             !
 ! R48   R(33,48)                1.0941         D2E/DX2 =    0.3456             !
 ! R49   R(34,35)                1.5099         D2E/DX2 =    0.291              !
 ! R50   R(35,49)                1.0949         D2E/DX2 =    0.344              !
 ! R51   R(35,50)                1.0951         D2E/DX2 =    0.3436             !
 ! R52   R(35,51)                1.0906         D2E/DX2 =    0.3545             !
 ! R53   R(36,37)                1.507          D2E/DX2 =    0.2941             !
 ! R54   R(37,52)                1.0965         D2E/DX2 =    0.3413             !
 ! R55   R(37,53)                1.0913         D2E/DX2 =    0.3526             !
 ! R56   R(37,54)                1.0924         D2E/DX2 =    0.3495             !
 ! R57   R(38,55)                1.0939         D2E/DX2 =    0.3422             !
 ! R58   R(38,56)                1.091          D2E/DX2 =    0.3518             !
 ! R59   R(39,40)                1.5067         D2E/DX2 =    0.2949             !
 ! R60   R(40,57)                1.0915         D2E/DX2 =    0.352              !
 ! R61   R(40,58)                1.0922         D2E/DX2 =    0.3497             !
 ! R62   R(40,59)                1.0962         D2E/DX2 =    0.3423             !
 ! R63   R(60,61)                1.4645         D2E/DX2 =    0.3338             !
 ! R64   R(60,90)                1.0211         D2E/DX2 =    0.4356             !
 ! R65   R(60,91)                1.019          D2E/DX2 =    0.4387             !
 ! R66   R(61,62)                1.54           D2E/DX2 =    0.2479             !
 ! R67   R(61,64)                1.5449         D2E/DX2 =    0.2607             !
 ! R68   R(61,89)                1.0949         D2E/DX2 =    0.3384             !
 ! R69   R(62,63)                1.2258         D2E/DX2 =    0.8009             !
 ! R70   R(62,66)                1.3776         D2E/DX2 =    0.4287             !
 ! R71   R(64,65)                1.4182         D2E/DX2 =    0.3585             !
 ! R72   R(64,86)                1.0981         D2E/DX2 =    0.3309             !
 ! R73   R(64,87)                1.0948         D2E/DX2 =    0.3412             !
 ! R74   R(65,88)                0.973          D2E/DX2 =    0.4895             !
 ! R75   R(66,67)                1.4543         D2E/DX2 =    0.3484             !
 ! R76   R(66,94)                1.0131         D2E/DX2 =    0.4578             !
 ! R77   R(67,68)                1.5381         D2E/DX2 =    0.2524             !
 ! R78   R(67,92)                1.0926         D2E/DX2 =    0.345              !
 ! R79   R(67,93)                1.0941         D2E/DX2 =    0.3419             !
 ! R80   R(68,69)                1.2304         D2E/DX2 =    0.7769             !
 ! R81   R(68,70)                1.3706         D2E/DX2 =    0.4383             !
 ! R82   R(70,71)                1.4692         D2E/DX2 =    0.3183             !
 ! R83   R(70,98)                1.0151         D2E/DX2 =    0.4521             !
 ! R84   R(71,72)                1.5368         D2E/DX2 =    0.2411             !
 ! R85   R(71,74)                1.5535         D2E/DX2 =    0.2291             !
 ! R86   R(71,97)                1.0943         D2E/DX2 =    0.3398             !
 ! R87   R(72,73)                1.2209         D2E/DX2 =    0.817              !
 ! R88   R(72,76)                1.3773         D2E/DX2 =    0.3919             !
 ! R89   R(74,75)                1.8575         D2E/DX2 =    0.1575             !
 ! R90   R(74,95)                1.0934         D2E/DX2 =    0.3423             !
 ! R91   R(74,96)                1.0922         D2E/DX2 =    0.3471             !
 ! R92   R(76,77)                1.4654         D2E/DX2 =    0.3031             !
 ! R93   R(76,102)               1.0161         D2E/DX2 =    0.4459             !
 ! R94   R(77,78)                1.535          D2E/DX2 =    0.2548             !
 ! R95   R(77,79)                1.5436         D2E/DX2 =    0.2507             !
 ! R96   R(77,101)               1.0923         D2E/DX2 =    0.346              !
 ! R97   R(78,99)                1.0938         D2E/DX2 =    0.3432             !
 ! R98   R(78,100)               1.0905         D2E/DX2 =    0.3525             !
 ! R99   R(78,107)               1.9935         D2E/DX2 =    0.1366             !
 ! R100  R(79,80)                1.2259         D2E/DX2 =    0.8016             !
 ! R101  R(79,81)                1.3608         D2E/DX2 =    0.4655             !
 ! R102  R(81,82)                1.4488         D2E/DX2 =    0.3557             !
 ! R103  R(81,105)               1.0158         D2E/DX2 =    0.4529             !
 ! R104  R(82,83)                1.5184         D2E/DX2 =    0.2891             !
 ! R105  R(82,103)               1.1001         D2E/DX2 =    0.3267             !
 ! R106  R(82,104)               1.0958         D2E/DX2 =    0.3394             !
 ! R107  R(83,84)                1.2111         D2E/DX2 =    0.87               !
 ! R108  R(83,85)                1.3446         D2E/DX2 =    0.4291             !
 ! R109  R(85,106)               0.9762         D2E/DX2 =    0.4885             !
 ! R110  R(108,109)              1.3952         D2E/DX2 =    0.4037             !
 ! R111  R(108,110)              1.3948         D2E/DX2 =    0.4053             !
 ! R112  R(109,111)              1.3947         D2E/DX2 =    0.4037             !
 ! R113  R(109,112)              1.0997         D2E/DX2 =    0.3363             !
 ! R114  R(110,113)              1.3951         D2E/DX2 =    0.4026             !
 ! R115  R(110,114)              1.0996         D2E/DX2 =    0.334              !
 ! R116  R(111,115)              1.3954         D2E/DX2 =    0.4041             !
 ! R117  R(111,116)              1.0997         D2E/DX2 =    0.3347             !
 ! R118  R(113,115)              1.3948         D2E/DX2 =    0.4054             !
 ! R119  R(113,117)              1.0998         D2E/DX2 =    0.3344             !
 ! R120  R(115,118)              1.0997         D2E/DX2 =    0.335              !
 ! A1    A(2,1,17)             103.7708         D2E/DX2 =    0.0318             !
 ! A2    A(2,1,75)             107.0444         D2E/DX2 =    0.0159             !
 ! A3    A(2,1,107)            156.3292         D2E/DX2 =    0.0117             !
 ! A4    A(17,1,75)            140.1908         D2E/DX2 =    0.0081             !
 ! A5    A(17,1,107)            97.5864         D2E/DX2 =    0.0235             !
 ! A6    A(75,1,107)            59.57           D2E/DX2 =    0.0016             !
 ! A7    A(1,2,3)              111.2908         D2E/DX2 =    0.0325             !
 ! A8    A(1,2,6)              115.3688         D2E/DX2 =    0.023              !
 ! A9    A(1,2,108)            113.1788         D2E/DX2 =    0.027              !
 ! A10   A(3,2,6)              106.4348         D2E/DX2 =    0.0321             !
 ! A11   A(3,2,108)            104.9968         D2E/DX2 =    0.0384             !
 ! A12   A(6,2,108)            104.7587         D2E/DX2 =    0.0238             !
 ! A13   A(2,3,4)              108.589          D2E/DX2 =    0.0475             !
 ! A14   A(2,3,5)              105.5936         D2E/DX2 =    0.0429             !
 ! A15   A(2,3,13)             113.7852         D2E/DX2 =    0.1249             !
 ! A16   A(4,3,5)              107.9521         D2E/DX2 =    0.0173             !
 ! A17   A(4,3,13)             111.4489         D2E/DX2 =    0.0476             !
 ! A18   A(5,3,13)             109.1637         D2E/DX2 =    0.0439             !
 ! A19   A(2,6,7)              106.0763         D2E/DX2 =    0.0478             !
 ! A20   A(2,6,8)              106.0355         D2E/DX2 =    0.0484             !
 ! A21   A(2,6,9)              116.8406         D2E/DX2 =    0.131              !
 ! A22   A(7,6,8)              105.9654         D2E/DX2 =    0.0171             !
 ! A23   A(7,6,9)              110.5215         D2E/DX2 =    0.0469             !
 ! A24   A(8,6,9)              110.7321         D2E/DX2 =    0.0471             !
 ! A25   A(6,9,10)             109.9294         D2E/DX2 =    0.1031             !
 ! A26   A(6,9,11)             111.7721         D2E/DX2 =    0.1069             !
 ! A27   A(6,9,12)             111.981          D2E/DX2 =    0.1061             !
 ! A28   A(10,9,11)            107.5015         D2E/DX2 =    0.0527             !
 ! A29   A(10,9,12)            107.4187         D2E/DX2 =    0.0525             !
 ! A30   A(11,9,12)            108.0373         D2E/DX2 =    0.0551             !
 ! A31   A(3,13,14)            110.7475         D2E/DX2 =    0.1144             !
 ! A32   A(3,13,15)            109.6603         D2E/DX2 =    0.1064             !
 ! A33   A(3,13,16)            112.1506         D2E/DX2 =    0.1099             !
 ! A34   A(14,13,15)           107.485          D2E/DX2 =    0.0523             !
 ! A35   A(14,13,16)           109.1258         D2E/DX2 =    0.0562             !
 ! A36   A(15,13,16)           107.5106         D2E/DX2 =    0.0536             !
 ! A37   A(1,17,27)            101.0895         D2E/DX2 =    0.2336             !
 ! A38   A(27,18,31)           113.1577         D2E/DX2 =    0.0609             !
 ! A39   A(28,19,32)           118.1075         D2E/DX2 =    0.3261             !
 ! A40   A(29,21,34)           118.3796         D2E/DX2 =    0.3269             !
 ! A41   A(30,23,36)           117.8693         D2E/DX2 =    0.3548             !
 ! A42   A(38,25,39)           117.2224         D2E/DX2 =    0.3817             !
 ! A43   A(17,27,18)           109.6703         D2E/DX2 =    0.0645             !
 ! A44   A(17,27,28)           111.5282         D2E/DX2 =    0.0826             !
 ! A45   A(17,27,41)           109.211          D2E/DX2 =    0.0306             !
 ! A46   A(18,27,28)           108.9676         D2E/DX2 =    0.0499             !
 ! A47   A(18,27,41)           108.5263         D2E/DX2 =    0.0281             !
 ! A48   A(28,27,41)           108.8822         D2E/DX2 =    0.0399             !
 ! A49   A(19,28,27)           108.7605         D2E/DX2 =    0.0537             !
 ! A50   A(19,28,29)           107.3419         D2E/DX2 =    0.056              !
 ! A51   A(19,28,42)           109.405          D2E/DX2 =    0.0216             !
 ! A52   A(27,28,29)           111.0525         D2E/DX2 =    0.0493             !
 ! A53   A(27,28,42)           110.1821         D2E/DX2 =    0.0253             !
 ! A54   A(29,28,42)           110.0332         D2E/DX2 =    0.0267             !
 ! A55   A(21,29,28)           108.2574         D2E/DX2 =    0.0529             !
 ! A56   A(21,29,30)           108.6196         D2E/DX2 =    0.0526             !
 ! A57   A(21,29,43)           108.4602         D2E/DX2 =    0.0218             !
 ! A58   A(28,29,30)           111.0484         D2E/DX2 =    0.0475             !
 ! A59   A(28,29,43)           110.1492         D2E/DX2 =    0.0247             !
 ! A60   A(30,29,43)           110.2317         D2E/DX2 =    0.0254             !
 ! A61   A(23,30,29)           109.0827         D2E/DX2 =    0.0572             !
 ! A62   A(23,30,31)           108.822          D2E/DX2 =    0.0561             !
 ! A63   A(23,30,44)           109.1874         D2E/DX2 =    0.0227             !
 ! A64   A(29,30,31)           109.3948         D2E/DX2 =    0.0481             !
 ! A65   A(29,30,44)           110.453          D2E/DX2 =    0.027              !
 ! A66   A(31,30,44)           109.8723         D2E/DX2 =    0.0249             !
 ! A67   A(18,31,30)           108.4846         D2E/DX2 =    0.0403             !
 ! A68   A(18,31,38)           109.0004         D2E/DX2 =    0.0748             !
 ! A69   A(18,31,45)           109.782          D2E/DX2 =    0.0204             !
 ! A70   A(30,31,38)           113.8723         D2E/DX2 =    0.1317             !
 ! A71   A(30,31,45)           108.9743         D2E/DX2 =    0.0345             !
 ! A72   A(38,31,45)           106.6794         D2E/DX2 =    0.0338             !
 ! A73   A(19,32,20)           124.4195         D2E/DX2 =    0.2191             !
 ! A74   A(19,32,33)           109.8914         D2E/DX2 =    0.1738             !
 ! A75   A(20,32,33)           125.6888         D2E/DX2 =    0.1571             !
 ! A76   A(32,33,46)           109.5011         D2E/DX2 =    0.1075             !
 ! A77   A(32,33,47)           109.2018         D2E/DX2 =    0.1025             !
 ! A78   A(32,33,48)           110.6305         D2E/DX2 =    0.1045             !
 ! A79   A(46,33,47)           109.4729         D2E/DX2 =    0.055              !
 ! A80   A(46,33,48)           110.4674         D2E/DX2 =    0.0563             !
 ! A81   A(47,33,48)           107.5297         D2E/DX2 =    0.0549             !
 ! A82   A(21,34,22)           124.4337         D2E/DX2 =    0.222              !
 ! A83   A(21,34,35)           109.7551         D2E/DX2 =    0.1731             !
 ! A84   A(22,34,35)           125.8112         D2E/DX2 =    0.1574             !
 ! A85   A(34,35,49)           109.9664         D2E/DX2 =    0.104              !
 ! A86   A(34,35,50)           109.8218         D2E/DX2 =    0.104              !
 ! A87   A(34,35,51)           109.5722         D2E/DX2 =    0.1072             !
 ! A88   A(49,35,50)           107.1873         D2E/DX2 =    0.0551             !
 ! A89   A(49,35,51)           110.1833         D2E/DX2 =    0.0558             !
 ! A90   A(50,35,51)           110.0803         D2E/DX2 =    0.0556             !
 ! A91   A(23,36,24)           124.0266         D2E/DX2 =    0.2216             !
 ! A92   A(23,36,37)           110.5571         D2E/DX2 =    0.1739             !
 ! A93   A(24,36,37)           125.3782         D2E/DX2 =    0.1564             !
 ! A94   A(36,37,52)           107.7035         D2E/DX2 =    0.1032             !
 ! A95   A(36,37,53)           109.4922         D2E/DX2 =    0.1083             !
 ! A96   A(36,37,54)           111.5349         D2E/DX2 =    0.1072             !
 ! A97   A(52,37,53)           108.6139         D2E/DX2 =    0.0539             !
 ! A98   A(52,37,54)           108.563          D2E/DX2 =    0.0549             !
 ! A99   A(53,37,54)           110.8327         D2E/DX2 =    0.0574             !
 ! A100  A(25,38,31)           110.93           D2E/DX2 =    0.2121             !
 ! A101  A(25,38,55)           107.5508         D2E/DX2 =    0.0685             !
 ! A102  A(25,38,56)           109.1816         D2E/DX2 =    0.0693             !
 ! A103  A(31,38,55)           108.9827         D2E/DX2 =    0.0796             !
 ! A104  A(31,38,56)           110.4842         D2E/DX2 =    0.0723             !
 ! A105  A(55,38,56)           109.6567         D2E/DX2 =    0.0294             !
 ! A106  A(25,39,26)           123.9314         D2E/DX2 =    0.2286             !
 ! A107  A(25,39,40)           110.8335         D2E/DX2 =    0.1756             !
 ! A108  A(26,39,40)           125.2067         D2E/DX2 =    0.158              !
 ! A109  A(39,40,57)           109.5373         D2E/DX2 =    0.1085             !
 ! A110  A(39,40,58)           111.5954         D2E/DX2 =    0.1074             !
 ! A111  A(39,40,59)           107.5339         D2E/DX2 =    0.104              !
 ! A112  A(57,40,58)           110.8888         D2E/DX2 =    0.0574             !
 ! A113  A(57,40,59)           108.6527         D2E/DX2 =    0.0539             !
 ! A114  A(58,40,59)           108.5242         D2E/DX2 =    0.055              !
 ! A115  A(61,60,90)           107.2164         D2E/DX2 =    0.1606             !
 ! A116  A(61,60,91)           109.7822         D2E/DX2 =    0.1574             !
 ! A117  A(90,60,91)           105.621          D2E/DX2 =    0.0563             !
 ! A118  A(60,61,62)           111.1697         D2E/DX2 =    0.0693             !
 ! A119  A(60,61,64)           107.9236         D2E/DX2 =    0.0911             !
 ! A120  A(60,61,89)           108.4569         D2E/DX2 =    0.0278             !
 ! A121  A(62,61,64)           109.3756         D2E/DX2 =    0.0768             !
 ! A122  A(62,61,89)           111.7322         D2E/DX2 =    0.0282             !
 ! A123  A(64,61,89)           108.0585         D2E/DX2 =    0.0337             !
 ! A124  A(61,62,63)           119.9981         D2E/DX2 =    0.1937             !
 ! A125  A(61,62,66)           120.1929         D2E/DX2 =    0.2628             !
 ! A126  A(63,62,66)           119.8008         D2E/DX2 =    0.2234             !
 ! A127  A(61,64,65)           113.4907         D2E/DX2 =    0.189              !
 ! A128  A(61,64,86)           107.5736         D2E/DX2 =    0.0748             !
 ! A129  A(61,64,87)           108.6923         D2E/DX2 =    0.0804             !
 ! A130  A(65,64,86)           112.3623         D2E/DX2 =    0.0696             !
 ! A131  A(65,64,87)           106.4195         D2E/DX2 =    0.0655             !
 ! A132  A(86,64,87)           108.1366         D2E/DX2 =    0.0276             !
 ! A133  A(64,65,88)           107.7407         D2E/DX2 =    0.2115             !
 ! A134  A(62,66,67)           128.8688         D2E/DX2 =    0.2186             !
 ! A135  A(62,66,94)           112.5588         D2E/DX2 =    0.1175             !
 ! A136  A(67,66,94)           118.5256         D2E/DX2 =    0.1207             !
 ! A137  A(66,67,68)           115.1754         D2E/DX2 =    0.2033             !
 ! A138  A(66,67,92)           111.2202         D2E/DX2 =    0.0705             !
 ! A139  A(66,67,93)           107.8335         D2E/DX2 =    0.0741             !
 ! A140  A(68,67,92)           105.2055         D2E/DX2 =    0.0671             !
 ! A141  A(68,67,93)           110.1294         D2E/DX2 =    0.0666             !
 ! A142  A(92,67,93)           106.9978         D2E/DX2 =    0.0243             !
 ! A143  A(67,68,69)           119.4475         D2E/DX2 =    0.1843             !
 ! A144  A(67,68,70)           120.3223         D2E/DX2 =    0.2152             !
 ! A145  A(69,68,70)           120.2183         D2E/DX2 =    0.207              !
 ! A146  A(68,70,71)           128.9741         D2E/DX2 =    0.1788             !
 ! A147  A(68,70,98)           109.8722         D2E/DX2 =    0.1024             !
 ! A148  A(71,70,98)           115.2539         D2E/DX2 =    0.0997             !
 ! A149  A(70,71,72)           110.1919         D2E/DX2 =    0.0622             !
 ! A150  A(70,71,74)           114.099          D2E/DX2 =    0.0694             !
 ! A151  A(70,71,97)           110.3446         D2E/DX2 =    0.0285             !
 ! A152  A(72,71,74)           108.397          D2E/DX2 =    0.0443             !
 ! A153  A(72,71,97)           105.599          D2E/DX2 =    0.0214             !
 ! A154  A(74,71,97)           107.8285         D2E/DX2 =    0.028              !
 ! A155  A(71,72,73)           121.486          D2E/DX2 =    0.1505             !
 ! A156  A(71,72,76)           114.8384         D2E/DX2 =    0.1037             !
 ! A157  A(73,72,76)           123.6277         D2E/DX2 =    0.1752             !
 ! A158  A(71,74,75)           115.359          D2E/DX2 =    0.0671             !
 ! A159  A(71,74,95)           110.1754         D2E/DX2 =    0.0616             !
 ! A160  A(71,74,96)           108.749          D2E/DX2 =    0.0652             !
 ! A161  A(75,74,95)           105.1282         D2E/DX2 =    0.0458             !
 ! A162  A(75,74,96)           109.7436         D2E/DX2 =    0.0409             !
 ! A163  A(95,74,96)           107.3801         D2E/DX2 =    0.0262             !
 ! A164  A(1,75,74)            127.4942         D2E/DX2 =    0.0587             !
 ! A165  A(72,76,77)           119.5576         D2E/DX2 =    0.1131             !
 ! A166  A(72,76,102)          115.4323         D2E/DX2 =    0.0742             !
 ! A167  A(77,76,102)          113.0991         D2E/DX2 =    0.0782             !
 ! A168  A(76,77,78)           110.5558         D2E/DX2 =    0.0459             !
 ! A169  A(76,77,79)           108.5772         D2E/DX2 =    0.047              !
 ! A170  A(76,77,101)          106.1418         D2E/DX2 =    0.025              !
 ! A171  A(78,77,79)           109.8775         D2E/DX2 =    0.0656             !
 ! A172  A(78,77,101)          110.2903         D2E/DX2 =    0.0276             !
 ! A173  A(79,77,101)          111.3292         D2E/DX2 =    0.0243             !
 ! A174  A(77,78,99)           110.6636         D2E/DX2 =    0.0597             !
 ! A175  A(77,78,100)          111.3454         D2E/DX2 =    0.0625             !
 ! A176  A(77,78,107)          112.7821         D2E/DX2 =    0.0634             !
 ! A177  A(99,78,100)          107.6169         D2E/DX2 =    0.0278             !
 ! A178  A(99,78,107)          105.2341         D2E/DX2 =    0.0395             !
 ! A179  A(100,78,107)         108.898          D2E/DX2 =    0.0368             !
 ! A180  A(77,79,80)           120.8477         D2E/DX2 =    0.1813             !
 ! A181  A(77,79,81)           116.538          D2E/DX2 =    0.2035             !
 ! A182  A(80,79,81)           122.5917         D2E/DX2 =    0.1956             !
 ! A183  A(79,81,82)           128.1438         D2E/DX2 =    0.1412             !
 ! A184  A(79,81,105)          115.9714         D2E/DX2 =    0.0942             !
 ! A185  A(82,81,105)          115.5948         D2E/DX2 =    0.1016             !
 ! A186  A(81,82,83)           108.6486         D2E/DX2 =    0.1927             !
 ! A187  A(81,82,103)          112.5949         D2E/DX2 =    0.0634             !
 ! A188  A(81,82,104)          112.6814         D2E/DX2 =    0.0667             !
 ! A189  A(83,82,103)          107.4819         D2E/DX2 =    0.062              !
 ! A190  A(83,82,104)          108.8564         D2E/DX2 =    0.0622             !
 ! A191  A(103,82,104)         106.395          D2E/DX2 =    0.026              !
 ! A192  A(82,83,84)           124.8156         D2E/DX2 =    0.1706             !
 ! A193  A(82,83,85)           111.0679         D2E/DX2 =    0.1612             !
 ! A194  A(84,83,85)           124.111          D2E/DX2 =    0.1978             !
 ! A195  A(83,85,106)          106.917          D2E/DX2 =    0.1779             !
 ! A196  A(1,107,78)           112.21           D2E/DX2 =    0.09               !
 ! A197  A(2,108,109)          119.9972         D2E/DX2 =    0.1657             !
 ! A198  A(2,108,110)          120.0043         D2E/DX2 =    0.1424             !
 ! A199  A(109,108,110)        119.9985         D2E/DX2 =    0.0885             !
 ! A200  A(108,109,111)        120.0086         D2E/DX2 =    0.0839             !
 ! A201  A(108,109,112)        119.9808         D2E/DX2 =    0.0871             !
 ! A202  A(111,109,112)        120.0105         D2E/DX2 =    0.0871             !
 ! A203  A(108,110,113)        120.0            D2E/DX2 =    0.0848             !
 ! A204  A(108,110,114)        120.008          D2E/DX2 =    0.0887             !
 ! A205  A(113,110,114)        119.992          D2E/DX2 =    0.0868             !
 ! A206  A(109,111,115)        119.9942         D2E/DX2 =    0.0828             !
 ! A207  A(109,111,116)        120.0128         D2E/DX2 =    0.083              !
 ! A208  A(115,111,116)        119.993          D2E/DX2 =    0.0833             !
 ! A209  A(110,113,115)        120.0047         D2E/DX2 =    0.0827             !
 ! A210  A(110,113,117)        119.984          D2E/DX2 =    0.0828             !
 ! A211  A(115,113,117)        120.0113         D2E/DX2 =    0.0832             !
 ! A212  A(111,115,113)        119.994          D2E/DX2 =    0.0827             !
 ! A213  A(111,115,118)        119.9811         D2E/DX2 =    0.0833             !
 ! A214  A(113,115,118)        120.0249         D2E/DX2 =    0.0833             !
 ! D1    D(17,1,2,3)           -28.5268         D2E/DX2 =    0.0109             !
 ! D2    D(17,1,2,6)          -149.9152         D2E/DX2 =    0.0074             !
 ! D3    D(17,1,2,108)          89.44           D2E/DX2 =    0.0092             !
 ! D4    D(75,1,2,3)           176.9997         D2E/DX2 =    0.0111             !
 ! D5    D(75,1,2,6)            55.6113         D2E/DX2 =    0.0082             !
 ! D6    D(75,1,2,108)         -65.0335         D2E/DX2 =    0.0103             !
 ! D7    D(107,1,2,3)          125.3248         D2E/DX2 =    0.0099             !
 ! D8    D(107,1,2,6)            3.9364         D2E/DX2 =    0.0076             !
 ! D9    D(107,1,2,108)       -116.7083         D2E/DX2 =    0.0102             !
 ! D10   D(2,1,17,27)          124.8353         D2E/DX2 =    0.0124             !
 ! D11   D(75,1,17,27)         -95.2192         D2E/DX2 =    0.017              !
 ! D12   D(107,1,17,27)        -44.8826         D2E/DX2 =    0.0139             !
 ! D13   D(2,1,75,74)          137.0331         D2E/DX2 =    0.0133             !
 ! D14   D(17,1,75,74)          -2.1433         D2E/DX2 =    0.0099             !
 ! D15   D(107,1,75,74)        -64.3918         D2E/DX2 =    0.0237             !
 ! D16   D(2,1,107,78)         -20.3002         D2E/DX2 =    0.0072             !
 ! D17   D(17,1,107,78)        134.1173         D2E/DX2 =    0.0149             !
 ! D18   D(75,1,107,78)        -80.7441         D2E/DX2 =    0.0203             !
 ! D19   D(1,2,3,4)            171.5941         D2E/DX2 =    0.0109             !
 ! D20   D(1,2,3,5)             56.0328         D2E/DX2 =    0.0105             !
 ! D21   D(1,2,3,13)           -63.6667         D2E/DX2 =    0.0116             !
 ! D22   D(6,2,3,4)            -61.9385         D2E/DX2 =    0.0127             !
 ! D23   D(6,2,3,5)           -177.4998         D2E/DX2 =    0.0128             !
 ! D24   D(6,2,3,13)            62.8007         D2E/DX2 =    0.0134             !
 ! D25   D(108,2,3,4)           48.793          D2E/DX2 =    0.0144             !
 ! D26   D(108,2,3,5)          -66.7683         D2E/DX2 =    0.0134             !
 ! D27   D(108,2,3,13)         173.5321         D2E/DX2 =    0.0142             !
 ! D28   D(1,2,6,7)             53.2636         D2E/DX2 =    0.0116             !
 ! D29   D(1,2,6,8)            -59.1116         D2E/DX2 =    0.0115             !
 ! D30   D(1,2,6,9)            176.954          D2E/DX2 =    0.0109             !
 ! D31   D(3,2,6,7)            -70.7119         D2E/DX2 =    0.0166             !
 ! D32   D(3,2,6,8)            176.9129         D2E/DX2 =    0.0169             !
 ! D33   D(3,2,6,9)             52.9784         D2E/DX2 =    0.0165             !
 ! D34   D(108,2,6,7)          178.3903         D2E/DX2 =    0.0171             !
 ! D35   D(108,2,6,8)           66.0151         D2E/DX2 =    0.0166             !
 ! D36   D(108,2,6,9)          -57.9194         D2E/DX2 =    0.0166             !
 ! D37   D(1,2,108,109)       -142.99           D2E/DX2 =    0.0056             !
 ! D38   D(1,2,108,110)         37.0047         D2E/DX2 =    0.006              !
 ! D39   D(3,2,108,109)        -21.4151         D2E/DX2 =    0.0094             !
 ! D40   D(3,2,108,110)        158.5796         D2E/DX2 =    0.0102             !
 ! D41   D(6,2,108,109)         90.5145         D2E/DX2 =    0.0085             !
 ! D42   D(6,2,108,110)        -89.4908         D2E/DX2 =    0.0086             !
 ! D43   D(2,3,13,14)           61.9478         D2E/DX2 =    0.0139             !
 ! D44   D(2,3,13,15)         -179.5938         D2E/DX2 =    0.0133             !
 ! D45   D(2,3,13,16)          -60.2263         D2E/DX2 =    0.0128             !
 ! D46   D(4,3,13,14)         -174.8601         D2E/DX2 =    0.0146             !
 ! D47   D(4,3,13,15)          -56.4017         D2E/DX2 =    0.0139             !
 ! D48   D(4,3,13,16)           62.9658         D2E/DX2 =    0.0144             !
 ! D49   D(5,3,13,14)          -55.7086         D2E/DX2 =    0.0152             !
 ! D50   D(5,3,13,15)           62.7498         D2E/DX2 =    0.0145             !
 ! D51   D(5,3,13,16)         -177.8828         D2E/DX2 =    0.0146             !
 ! D52   D(2,6,9,10)          -178.8974         D2E/DX2 =    0.0129             !
 ! D53   D(2,6,9,11)           -59.6045         D2E/DX2 =    0.0127             !
 ! D54   D(2,6,9,12)            61.7796         D2E/DX2 =    0.0127             !
 ! D55   D(7,6,9,10)           -57.5119         D2E/DX2 =    0.0142             !
 ! D56   D(7,6,9,11)            61.7809         D2E/DX2 =    0.0145             !
 ! D57   D(7,6,9,12)          -176.8349         D2E/DX2 =    0.0143             !
 ! D58   D(8,6,9,10)            59.5987         D2E/DX2 =    0.0142             !
 ! D59   D(8,6,9,11)           178.8915         D2E/DX2 =    0.0143             !
 ! D60   D(8,6,9,12)           -59.7243         D2E/DX2 =    0.0146             !
 ! D61   D(1,17,27,18)         -78.2775         D2E/DX2 =    0.0204             !
 ! D62   D(1,17,27,28)         160.9203         D2E/DX2 =    0.0152             !
 ! D63   D(1,17,27,41)          40.5314         D2E/DX2 =    0.0211             !
 ! D64   D(31,18,27,17)        174.8904         D2E/DX2 =    0.0385             !
 ! D65   D(31,18,27,28)        -62.7701         D2E/DX2 =    0.0185             !
 ! D66   D(31,18,27,41)         55.6597         D2E/DX2 =    0.0245             !
 ! D67   D(27,18,31,30)         66.2359         D2E/DX2 =    0.0229             !
 ! D68   D(27,18,31,38)       -169.2637         D2E/DX2 =    0.056              !
 ! D69   D(27,18,31,45)        -52.7483         D2E/DX2 =    0.0217             !
 ! D70   D(32,19,28,27)        121.823          D2E/DX2 =    0.0131             !
 ! D71   D(32,19,28,29)       -117.9446         D2E/DX2 =    0.0135             !
 ! D72   D(32,19,28,42)          1.4282         D2E/DX2 =    0.0117             !
 ! D73   D(28,19,32,20)          4.1989         D2E/DX2 =    0.0141             !
 ! D74   D(28,19,32,33)       -175.6069         D2E/DX2 =    0.0161             !
 ! D75   D(34,21,29,28)       -119.4557         D2E/DX2 =    0.0118             !
 ! D76   D(34,21,29,30)        119.8651         D2E/DX2 =    0.0118             !
 ! D77   D(34,21,29,43)          0.0513         D2E/DX2 =    0.011              !
 ! D78   D(29,21,34,22)         -0.6604         D2E/DX2 =    0.0141             !
 ! D79   D(29,21,34,35)        179.3094         D2E/DX2 =    0.0157             !
 ! D80   D(36,23,30,29)        114.674          D2E/DX2 =    0.0233             !
 ! D81   D(36,23,30,31)       -126.041          D2E/DX2 =    0.0259             !
 ! D82   D(36,23,30,44)         -6.1159         D2E/DX2 =    0.014              !
 ! D83   D(30,23,36,24)         -3.0266         D2E/DX2 =    0.0197             !
 ! D84   D(30,23,36,37)        174.8338         D2E/DX2 =    0.019              !
 ! D85   D(39,25,38,31)       -125.0067         D2E/DX2 =    0.0332             !
 ! D86   D(39,25,38,55)        115.9004         D2E/DX2 =    0.029              !
 ! D87   D(39,25,38,56)         -3.0185         D2E/DX2 =    0.0244             !
 ! D88   D(38,25,39,26)         -3.6756         D2E/DX2 =    0.0216             !
 ! D89   D(38,25,39,40)        174.4741         D2E/DX2 =    0.0233             !
 ! D90   D(17,27,28,19)        -67.7587         D2E/DX2 =    0.0242             !
 ! D91   D(17,27,28,29)        174.3333         D2E/DX2 =    0.0217             !
 ! D92   D(17,27,28,42)         52.1546         D2E/DX2 =    0.0177             !
 ! D93   D(18,27,28,19)        171.0292         D2E/DX2 =    0.0262             !
 ! D94   D(18,27,28,29)         53.1212         D2E/DX2 =    0.0189             !
 ! D95   D(18,27,28,42)        -69.0575         D2E/DX2 =    0.0198             !
 ! D96   D(41,27,28,19)         52.823          D2E/DX2 =    0.02               !
 ! D97   D(41,27,28,29)        -65.0849         D2E/DX2 =    0.0176             !
 ! D98   D(41,27,28,42)        172.7364         D2E/DX2 =    0.0155             !
 ! D99   D(19,28,29,21)         71.7218         D2E/DX2 =    0.0236             !
 ! D100  D(19,28,29,30)       -169.1216         D2E/DX2 =    0.0224             !
 ! D101  D(19,28,29,43)        -46.7166         D2E/DX2 =    0.0187             !
 ! D102  D(27,28,29,21)       -169.5129         D2E/DX2 =    0.0225             !
 ! D103  D(27,28,29,30)        -50.3563         D2E/DX2 =    0.0154             !
 ! D104  D(27,28,29,43)         72.0487         D2E/DX2 =    0.0166             !
 ! D105  D(42,28,29,21)        -47.2477         D2E/DX2 =    0.0186             !
 ! D106  D(42,28,29,30)         71.9089         D2E/DX2 =    0.0164             !
 ! D107  D(42,28,29,43)       -165.686          D2E/DX2 =    0.0147             !
 ! D108  D(21,29,30,23)        -69.1988         D2E/DX2 =    0.0244             !
 ! D109  D(21,29,30,31)        171.8727         D2E/DX2 =    0.0223             !
 ! D110  D(21,29,30,44)         50.8136         D2E/DX2 =    0.0185             !
 ! D111  D(28,29,30,23)        171.862          D2E/DX2 =    0.0247             !
 ! D112  D(28,29,30,31)         52.9335         D2E/DX2 =    0.0148             !
 ! D113  D(28,29,30,44)        -68.1256         D2E/DX2 =    0.0163             !
 ! D114  D(43,29,30,23)         49.5048         D2E/DX2 =    0.0195             !
 ! D115  D(43,29,30,31)        -69.4237         D2E/DX2 =    0.0163             !
 ! D116  D(43,29,30,44)        169.5172         D2E/DX2 =    0.0147             !
 ! D117  D(23,30,31,18)       -178.4022         D2E/DX2 =    0.0292             !
 ! D118  D(23,30,31,38)         60.0408         D2E/DX2 =    0.028              !
 ! D119  D(23,30,31,45)        -58.9105         D2E/DX2 =    0.0213             !
 ! D120  D(29,30,31,18)        -59.3122         D2E/DX2 =    0.0202             !
 ! D121  D(29,30,31,38)        179.1308         D2E/DX2 =    0.0213             !
 ! D122  D(29,30,31,45)         60.1795         D2E/DX2 =    0.0167             !
 ! D123  D(44,30,31,18)         62.0985         D2E/DX2 =    0.0202             !
 ! D124  D(44,30,31,38)        -59.4586         D2E/DX2 =    0.0167             !
 ! D125  D(44,30,31,45)       -178.4099         D2E/DX2 =    0.015              !
 ! D126  D(18,31,38,25)        -70.2335         D2E/DX2 =    0.0197             !
 ! D127  D(18,31,38,55)         47.9947         D2E/DX2 =    0.0168             !
 ! D128  D(18,31,38,56)        168.5417         D2E/DX2 =    0.0196             !
 ! D129  D(30,31,38,25)         51.0369         D2E/DX2 =    0.022              !
 ! D130  D(30,31,38,55)        169.2652         D2E/DX2 =    0.0159             !
 ! D131  D(30,31,38,56)        -70.1878         D2E/DX2 =    0.0153             !
 ! D132  D(45,31,38,25)        171.2874         D2E/DX2 =    0.0231             !
 ! D133  D(45,31,38,55)        -70.4843         D2E/DX2 =    0.0166             !
 ! D134  D(45,31,38,56)         50.0627         D2E/DX2 =    0.0159             !
 ! D135  D(19,32,33,46)       -170.4888         D2E/DX2 =    0.0178             !
 ! D136  D(19,32,33,47)         69.6553         D2E/DX2 =    0.0177             !
 ! D137  D(19,32,33,48)        -48.5035         D2E/DX2 =    0.0185             !
 ! D138  D(20,32,33,46)          9.7084         D2E/DX2 =    0.0189             !
 ! D139  D(20,32,33,47)       -110.1474         D2E/DX2 =    0.0159             !
 ! D140  D(20,32,33,48)        131.6937         D2E/DX2 =    0.0159             !
 ! D141  D(21,34,35,49)         57.6102         D2E/DX2 =    0.018              !
 ! D142  D(21,34,35,50)        -60.1096         D2E/DX2 =    0.0179             !
 ! D143  D(21,34,35,51)        178.8599         D2E/DX2 =    0.0179             !
 ! D144  D(22,34,35,49)       -122.4205         D2E/DX2 =    0.0158             !
 ! D145  D(22,34,35,50)        119.8597         D2E/DX2 =    0.0158             !
 ! D146  D(22,34,35,51)         -1.1708         D2E/DX2 =    0.019              !
 ! D147  D(23,36,37,52)        -84.8706         D2E/DX2 =    0.0175             !
 ! D148  D(23,36,37,53)        157.198          D2E/DX2 =    0.0172             !
 ! D149  D(23,36,37,54)         34.156          D2E/DX2 =    0.0189             !
 ! D150  D(24,36,37,52)         92.9545         D2E/DX2 =    0.0166             !
 ! D151  D(24,36,37,53)        -24.9769         D2E/DX2 =    0.0189             !
 ! D152  D(24,36,37,54)       -148.0189         D2E/DX2 =    0.0164             !
 ! D153  D(25,39,40,57)        154.3971         D2E/DX2 =    0.0172             !
 ! D154  D(25,39,40,58)         31.2108         D2E/DX2 =    0.0187             !
 ! D155  D(25,39,40,59)        -87.697          D2E/DX2 =    0.0174             !
 ! D156  D(26,39,40,57)        -27.4819         D2E/DX2 =    0.0189             !
 ! D157  D(26,39,40,58)       -150.6681         D2E/DX2 =    0.0167             !
 ! D158  D(26,39,40,59)         90.4241         D2E/DX2 =    0.0169             !
 ! D159  D(90,60,61,62)         42.069          D2E/DX2 =    0.0183             !
 ! D160  D(90,60,61,64)        -77.8764         D2E/DX2 =    0.0187             !
 ! D161  D(90,60,61,89)        165.2887         D2E/DX2 =    0.0144             !
 ! D162  D(91,60,61,62)        -72.2007         D2E/DX2 =    0.0164             !
 ! D163  D(91,60,61,64)        167.8539         D2E/DX2 =    0.0176             !
 ! D164  D(91,60,61,89)         51.019          D2E/DX2 =    0.0128             !
 ! D165  D(60,61,62,63)        -41.7249         D2E/DX2 =    0.0203             !
 ! D166  D(60,61,62,66)        137.2317         D2E/DX2 =    0.0218             !
 ! D167  D(64,61,62,63)         77.3547         D2E/DX2 =    0.0327             !
 ! D168  D(64,61,62,66)       -103.6886         D2E/DX2 =    0.0463             !
 ! D169  D(89,61,62,63)       -163.0468         D2E/DX2 =    0.0146             !
 ! D170  D(89,61,62,66)         15.9099         D2E/DX2 =    0.0165             !
 ! D171  D(60,61,64,65)       -178.407          D2E/DX2 =    0.0229             !
 ! D172  D(60,61,64,86)        -53.4613         D2E/DX2 =    0.0195             !
 ! D173  D(60,61,64,87)         63.4017         D2E/DX2 =    0.0204             !
 ! D174  D(62,61,64,65)         60.5229         D2E/DX2 =    0.0262             !
 ! D175  D(62,61,64,86)       -174.5315         D2E/DX2 =    0.0227             !
 ! D176  D(62,61,64,87)        -57.6685         D2E/DX2 =    0.0213             !
 ! D177  D(89,61,64,65)        -61.3137         D2E/DX2 =    0.0182             !
 ! D178  D(89,61,64,86)         63.6319         D2E/DX2 =    0.0155             !
 ! D179  D(89,61,64,87)       -179.5051         D2E/DX2 =    0.0165             !
 ! D180  D(61,62,66,67)         -0.7029         D2E/DX2 =    0.0162             !
 ! D181  D(61,62,66,94)       -178.1426         D2E/DX2 =    0.0148             !
 ! D182  D(63,62,66,67)        178.2558         D2E/DX2 =    0.0245             !
 ! D183  D(63,62,66,94)          0.8161         D2E/DX2 =    0.0153             !
 ! D184  D(61,64,65,88)         67.2355         D2E/DX2 =    0.0225             !
 ! D185  D(86,64,65,88)        -55.0941         D2E/DX2 =    0.0255             !
 ! D186  D(87,64,65,88)       -173.2675         D2E/DX2 =    0.0282             !
 ! D187  D(62,66,67,68)         74.1013         D2E/DX2 =    0.0231             !
 ! D188  D(62,66,67,92)        -45.4629         D2E/DX2 =    0.0141             !
 ! D189  D(62,66,67,93)       -162.4854         D2E/DX2 =    0.0176             !
 ! D190  D(94,66,67,68)       -108.5899         D2E/DX2 =    0.0163             !
 ! D191  D(94,66,67,92)        131.8459         D2E/DX2 =    0.0176             !
 ! D192  D(94,66,67,93)         14.8233         D2E/DX2 =    0.0119             !
 ! D193  D(66,67,68,69)       -115.6919         D2E/DX2 =    0.0203             !
 ! D194  D(66,67,68,70)         65.562          D2E/DX2 =    0.0202             !
 ! D195  D(92,67,68,69)          7.1423         D2E/DX2 =    0.0179             !
 ! D196  D(92,67,68,70)       -171.6038         D2E/DX2 =    0.0184             !
 ! D197  D(93,67,68,69)        122.1203         D2E/DX2 =    0.0172             !
 ! D198  D(93,67,68,70)        -56.6257         D2E/DX2 =    0.0175             !
 ! D199  D(67,68,70,71)        -20.5791         D2E/DX2 =    0.0067             !
 ! D200  D(67,68,70,98)       -171.7355         D2E/DX2 =    0.0106             !
 ! D201  D(69,68,70,71)        160.6845         D2E/DX2 =    0.0109             !
 ! D202  D(69,68,70,98)          9.5281         D2E/DX2 =    0.0117             !
 ! D203  D(68,70,71,72)       -159.9018         D2E/DX2 =    0.0123             !
 ! D204  D(68,70,71,74)         77.8982         D2E/DX2 =    0.014              !
 ! D205  D(68,70,71,97)        -43.6742         D2E/DX2 =    0.0099             !
 ! D206  D(98,70,71,72)        -10.0102         D2E/DX2 =    0.0105             !
 ! D207  D(98,70,71,74)       -132.2102         D2E/DX2 =    0.0122             !
 ! D208  D(98,70,71,97)        106.2174         D2E/DX2 =    0.0099             !
 ! D209  D(70,71,72,73)        140.3164         D2E/DX2 =    0.0219             !
 ! D210  D(70,71,72,76)        -42.1134         D2E/DX2 =    0.0239             !
 ! D211  D(74,71,72,73)        -94.1766         D2E/DX2 =    0.0157             !
 ! D212  D(74,71,72,76)         83.3937         D2E/DX2 =    0.0201             !
 ! D213  D(97,71,72,73)         21.1549         D2E/DX2 =    0.0142             !
 ! D214  D(97,71,72,76)       -161.2748         D2E/DX2 =    0.0164             !
 ! D215  D(70,71,74,75)         57.243          D2E/DX2 =    0.0213             !
 ! D216  D(70,71,74,95)        -61.5626         D2E/DX2 =    0.0176             !
 ! D217  D(70,71,74,96)       -179.0009         D2E/DX2 =    0.0198             !
 ! D218  D(72,71,74,75)        -65.9362         D2E/DX2 =    0.0182             !
 ! D219  D(72,71,74,95)        175.2582         D2E/DX2 =    0.0176             !
 ! D220  D(72,71,74,96)         57.82           D2E/DX2 =    0.0159             !
 ! D221  D(97,71,74,75)       -179.8053         D2E/DX2 =    0.0145             !
 ! D222  D(97,71,74,95)         61.389          D2E/DX2 =    0.0133             !
 ! D223  D(97,71,74,96)        -56.0492         D2E/DX2 =    0.0134             !
 ! D224  D(71,72,76,77)       -149.9627         D2E/DX2 =    0.0229             !
 ! D225  D(71,72,76,102)        -9.6909         D2E/DX2 =    0.0158             !
 ! D226  D(73,72,76,77)         27.5488         D2E/DX2 =    0.0152             !
 ! D227  D(73,72,76,102)       167.8206         D2E/DX2 =    0.0168             !
 ! D228  D(71,74,75,1)         141.8767         D2E/DX2 =    0.0249             !
 ! D229  D(95,74,75,1)         -96.5554         D2E/DX2 =    0.0254             !
 ! D230  D(96,74,75,1)          18.6453         D2E/DX2 =    0.0246             !
 ! D231  D(72,76,77,78)         99.2207         D2E/DX2 =    0.0168             !
 ! D232  D(72,76,77,79)       -140.1738         D2E/DX2 =    0.0226             !
 ! D233  D(72,76,77,101)       -20.3891         D2E/DX2 =    0.0125             !
 ! D234  D(102,76,77,78)       -41.912          D2E/DX2 =    0.0158             !
 ! D235  D(102,76,77,79)        78.6935         D2E/DX2 =    0.0187             !
 ! D236  D(102,76,77,101)     -161.5218         D2E/DX2 =    0.0123             !
 ! D237  D(76,77,78,99)       -176.7719         D2E/DX2 =    0.0157             !
 ! D238  D(76,77,78,100)        63.5802         D2E/DX2 =    0.016              !
 ! D239  D(76,77,78,107)       -59.1917         D2E/DX2 =    0.0153             !
 ! D240  D(79,77,78,99)         63.4013         D2E/DX2 =    0.0138             !
 ! D241  D(79,77,78,100)       -56.2466         D2E/DX2 =    0.0134             !
 ! D242  D(79,77,78,107)      -179.0185         D2E/DX2 =    0.0164             !
 ! D243  D(101,77,78,99)       -59.6937         D2E/DX2 =    0.013              !
 ! D244  D(101,77,78,100)     -179.3416         D2E/DX2 =    0.0126             !
 ! D245  D(101,77,78,107)       57.8865         D2E/DX2 =    0.0142             !
 ! D246  D(76,77,79,80)        -92.919          D2E/DX2 =    0.0149             !
 ! D247  D(76,77,79,81)         85.3987         D2E/DX2 =    0.0161             !
 ! D248  D(78,77,79,80)         28.1053         D2E/DX2 =    0.0128             !
 ! D249  D(78,77,79,81)       -153.577          D2E/DX2 =    0.013              !
 ! D250  D(101,77,79,80)       150.5873         D2E/DX2 =    0.0121             !
 ! D251  D(101,77,79,81)       -31.095          D2E/DX2 =    0.0131             !
 ! D252  D(77,78,107,1)        143.077          D2E/DX2 =    0.0253             !
 ! D253  D(99,78,107,1)        -96.1887         D2E/DX2 =    0.024              !
 ! D254  D(100,78,107,1)        18.9477         D2E/DX2 =    0.0239             !
 ! D255  D(77,79,81,82)         -0.7491         D2E/DX2 =    0.0064             !
 ! D256  D(77,79,81,105)      -174.2386         D2E/DX2 =    0.0088             !
 ! D257  D(80,79,81,82)        177.5367         D2E/DX2 =    0.0107             !
 ! D258  D(80,79,81,105)         4.0472         D2E/DX2 =    0.0104             !
 ! D259  D(79,81,82,83)       -164.6849         D2E/DX2 =    0.0102             !
 ! D260  D(79,81,82,103)        76.3776         D2E/DX2 =    0.0146             !
 ! D261  D(79,81,82,104)       -43.9718         D2E/DX2 =    0.0139             !
 ! D262  D(105,81,82,83)         8.8253         D2E/DX2 =    0.0108             !
 ! D263  D(105,81,82,103)     -110.1121         D2E/DX2 =    0.015              !
 ! D264  D(105,81,82,104)      129.5384         D2E/DX2 =    0.0142             !
 ! D265  D(81,82,83,84)         -2.7753         D2E/DX2 =    0.02               !
 ! D266  D(81,82,83,85)        178.0526         D2E/DX2 =    0.0207             !
 ! D267  D(103,82,83,84)       119.3268         D2E/DX2 =    0.019              !
 ! D268  D(103,82,83,85)       -59.8453         D2E/DX2 =    0.0193             !
 ! D269  D(104,82,83,84)      -125.8213         D2E/DX2 =    0.0191             !
 ! D270  D(104,82,83,85)        55.0066         D2E/DX2 =    0.0196             !
 ! D271  D(82,83,85,106)       179.5578         D2E/DX2 =    0.0173             !
 ! D272  D(84,83,85,106)         0.3787         D2E/DX2 =    0.0165             !
 ! D273  D(2,108,109,111)     -179.9729         D2E/DX2 =    0.0067             !
 ! D274  D(2,108,109,112)       -0.052          D2E/DX2 =    0.0061             !
 ! D275  D(110,108,109,111)      0.0323         D2E/DX2 =    0.0075             !
 ! D276  D(110,108,109,112)    179.9532         D2E/DX2 =    0.0068             !
 ! D277  D(2,108,110,113)     -179.9798         D2E/DX2 =    0.0066             !
 ! D278  D(2,108,110,114)       -0.0056         D2E/DX2 =    0.0072             !
 ! D279  D(109,108,110,113)      0.0149         D2E/DX2 =    0.0074             !
 ! D280  D(109,108,110,114)    179.9892         D2E/DX2 =    0.0076             !
 ! D281  D(108,109,111,115)     -0.0568         D2E/DX2 =    0.0089             !
 ! D282  D(108,109,111,116)    179.9619         D2E/DX2 =    0.0085             !
 ! D283  D(112,109,111,115)   -179.9777         D2E/DX2 =    0.0081             !
 ! D284  D(112,109,111,116)      0.041          D2E/DX2 =    0.0089             !
 ! D285  D(108,110,113,115)     -0.0376         D2E/DX2 =    0.0088             !
 ! D286  D(108,110,113,117)    179.975          D2E/DX2 =    0.0085             !
 ! D287  D(114,110,113,115)    179.9881         D2E/DX2 =    0.0086             !
 ! D288  D(114,110,113,117)      0.0007         D2E/DX2 =    0.0092             !
 ! D289  D(109,111,115,113)      0.0341         D2E/DX2 =    0.009              !
 ! D290  D(109,111,115,118)   -179.9964         D2E/DX2 =    0.0085             !
 ! D291  D(116,111,115,113)   -179.9846         D2E/DX2 =    0.0083             !
 ! D292  D(116,111,115,118)     -0.0151         D2E/DX2 =    0.009              !
 ! D293  D(110,113,115,111)      0.0131         D2E/DX2 =    0.009              !
 ! D294  D(110,113,115,118)   -179.9563         D2E/DX2 =    0.0085             !
 ! D295  D(117,113,115,111)   -179.9995         D2E/DX2 =    0.0084             !
 ! D296  D(117,113,115,118)      0.031          D2E/DX2 =    0.009              !
 --------------------------------------------------------------------------------
 Trust Radius=3.00D-01 FncErr=1.00D-07 GrdErr=1.00D-06
 Number of steps in this run=    640 maximum allowed number of steps=    708.
 Search for a saddle point of order  1.
 GradGradGradGradGradGradGradGradGradGradGradGradGradGradGradGradGradGrad

 Stoichiometry    C37H55AuN5O16PS2Se
 Framework group  C1[X(C37H55AuN5O16PS2Se)]
 Deg. of freedom   348
 Full point group                 C1      NOp   1
 Largest Abelian subgroup         C1      NOp   1
 Largest concise Abelian subgroup C1      NOp   1
                         Standard orientation:                         
 ---------------------------------------------------------------------
 Center     Atomic      Atomic             Coordinates (Angstroms)
 Number     Number       Type             X           Y           Z
 ---------------------------------------------------------------------
      1         79           0       -0.311189    1.686039   -0.231243
      2         15           0       -0.550494    3.756284   -1.372178
      3          6           0       -2.320245    4.296604   -1.420171
      4          1           0       -2.363378    5.318609   -1.818073
      5          1           0       -2.647300    4.327069   -0.375051
      6          6           0        0.052144    3.770737   -3.132121
      7          1           0       -0.449059    2.933641   -3.631431
      8          1           0        1.115521    3.504309   -3.090509
      9          6           0       -0.151982    5.069827   -3.923957
     10          1           0        0.223907    4.947301   -4.945970
     11          1           0       -1.210615    5.341498   -3.992773
     12          1           0        0.385601    5.911699   -3.475764
     13          6           0       -3.235545    3.348988   -2.207018
     14          1           0       -3.253965    2.356749   -1.746482
     15          1           0       -4.260509    3.734951   -2.198210
     16          1           0       -2.928223    3.252939   -3.255018
     17         16           0       -2.218423    1.679569    1.401609
     18          8           0       -3.822738    0.302405   -0.214466
     19          8           0       -3.142533   -0.741081    3.234040
     20          8           0       -4.234323    0.693834    4.623155
     21          8           0       -5.754768   -1.861527    2.685670
     22          8           0       -4.907519   -3.922721    3.146998
     23          8           0       -6.012553   -2.623550   -0.102316
     24          8           0       -8.126487   -1.815896    0.128644
     25          8           0       -6.149686    0.175750   -2.006005
     26          8           0       -7.375923   -1.351090   -3.158794
     27          6           0       -3.036897    0.124396    0.974336
     28          6           0       -3.956340   -0.364549    2.115530
     29          6           0       -4.750839   -1.605895    1.689617
     30          6           0       -5.441933   -1.380555    0.347934
     31          6           0       -4.408959   -0.906990   -0.684463
     32          6           0       -3.355810   -0.111629    4.424263
     33          6           0       -2.334232   -0.568876    5.437454
     34          6           0       -5.722130   -3.051175    3.346930
     35          6           0       -6.846403   -3.106700    4.353289
     36          6           0       -7.370753   -2.705182   -0.194410
     37          6           0       -7.781959   -4.023709   -0.797185
     38          6           0       -4.988509   -0.670305   -2.071774
     39          6           0       -7.297250   -0.297990   -2.562553
     40          6           0       -8.447917    0.637475   -2.296193
     41          1           0       -2.270656   -0.647590    0.776581
     42          1           0       -4.639994    0.432200    2.416135
     43          1           0       -4.089646   -2.475347    1.633198
     44          1           0       -6.234296   -0.637529    0.447360
     45          1           0       -3.629562   -1.682237   -0.794439
     46          1           0       -2.608596   -0.195815    6.425008
     47          1           0       -1.349886   -0.176199    5.159155
     48          1           0       -2.262805   -1.660572    5.447158
     49          1           0       -7.807481   -2.964592    3.848388
     50          1           0       -6.737516   -2.292099    5.077027
     51          1           0       -6.829799   -4.068594    4.866898
     52          1           0       -7.744116   -3.917963   -1.887917
     53          1           0       -8.807969   -4.253545   -0.504888
     54          1           0       -7.104426   -4.828229   -0.502066
     55          1           0       -4.242198   -0.158953   -2.686673
     56          1           0       -5.261458   -1.618005   -2.538298
     57          1           0       -9.202775    0.518831   -3.075656
     58          1           0       -8.115141    1.675743   -2.231139
     59          1           0       -8.889475    0.352345   -1.334192
     60          7           0       10.328895    0.084642    2.514376
     61          6           0        9.124630   -0.130917    1.709442
     62          6           0        7.851817    0.003843    2.565803
     63          8           0        7.815947   -0.481306    3.690977
     64          6           0        9.196432   -1.556646    1.118839
     65          8           0        8.096605   -1.878460    0.283318
     66          7           0        6.758929    0.687224    2.079744
     67          6           0        6.599840    1.363921    0.802339
     68          6           0        6.416257    0.436572   -0.410957
     69          8           0        7.270541    0.422544   -1.296323
     70          7           0        5.298229   -0.348922   -0.518638
     71          6           0        4.370394   -0.784959    0.533716
     72          6           0        3.582836   -2.019771    0.068244
     73          8           0        3.339284   -2.944246    0.827559
     74          6           0        3.356094    0.305159    0.976677
     75         16           0        2.291674    0.999005   -0.378212
     76          7           0        3.141203   -1.966767   -1.235288
     77          6           0        1.907128   -2.662948   -1.609319
     78          6           0        0.729049   -1.680387   -1.662828
     79          6           0        2.110382   -3.314561   -2.993803
     80          8           0        1.790159   -2.724364   -4.019405
     81          7           0        2.689097   -4.546142   -3.007083
     82          6           0        3.157359   -5.326988   -1.880158
     83          6           0        4.055085   -6.436783   -2.397948
     84          8           0        4.285027   -6.651149   -3.567490
     85          8           0        4.552280   -7.168429   -1.385254
     86          1           0       10.158582   -1.651763    0.598129
     87          1           0        9.181496   -2.278532    1.941846
     88          1           0        8.153412   -1.318524   -0.510355
     89          1           0        9.131238    0.581547    0.878126
     90          1           0       10.189927   -0.400483    3.402057
     91          1           0       10.413008    1.072125    2.751568
     92          1           0        7.474713    1.974475    0.566587
     93          1           0        5.748033    2.045161    0.887847
     94          1           0        5.998805    0.730501    2.748159
     95          1           0        3.885866    1.166435    1.392754
     96          1           0        2.725046   -0.103621    1.768933
     97          1           0        4.924999   -1.106743    1.420517
     98          1           0        5.401190   -0.990653   -1.298339
     99          1           0       -0.203171   -2.207270   -1.885840
    100          1           0        0.875601   -0.926765   -2.437239
    101          1           0        1.737315   -3.416216   -0.836767
    102          1           0        3.246414   -1.066982   -1.695390
    103          1           0        2.335226   -5.799894   -1.322851
    104          1           0        3.718188   -4.727347   -1.154498
    105          1           0        2.901786   -4.927836   -3.924088
    106          1           0        5.110332   -7.863164   -1.783975
    107         34           0        0.408934   -0.763447    0.078103
    108          6           0        0.338152    5.125111   -0.566560
    109          6           0       -0.219612    6.403795   -0.548131
    110          6           0        1.576733    4.895841    0.032522
    111          6           0        0.461434    7.453056    0.068674
    112          1           0       -1.195747    6.584385   -1.021196
    113          6           0        2.257661    5.945103    0.650418
    114          1           0        2.016401    3.888063    0.018244
    115          6           0        1.700312    7.223608    0.668468
    116          1           0        0.022152    8.461089    0.082693
    117          1           0        3.234022    5.763949    1.123045
    118          1           0        2.237080    8.051056    1.154787
 ---------------------------------------------------------------------
 Rotational constants (GHZ):      0.0343677      0.0178013      0.0149805
 General basis read from cards:  (5D, 7F)
 ======================================================================================================
                                       Pseudopotential Parameters
 ======================================================================================================
  Center     Atomic      Valence      Angular      Power
  Number     Number     Electrons     Momentum     of R      Exponent        Coefficient   SO-Coeffient
 ======================================================================================================
    1         79           19
                                      G and up 
                                                     1      622.6287956      -60.00000000    0.00000000
                                                     2      136.2843607     -555.52923120    0.00000000
                                                     2       33.1549781     -168.00197850    0.00000000
                                                     2        9.9894895      -63.03998750    0.00000000
                                                     2        3.0481312       -4.25166810    0.00000000
                                      S - G
                                                     0      194.7374304        3.00000000    0.00000000
                                                     1      351.5327447       38.60208800    0.00000000
                                                     2      122.3270402      864.83707270    0.00000000
                                                     2       32.0914617      374.99355200    0.00000000
                                                     2        5.2451812      289.79101000    0.00000000
                                                     2        4.4916223     -152.45327730    0.00000000
                                      P - G
                                                     0      420.6158801        2.00000000    0.00000000
                                                     1      109.4417815       73.88856250    0.00000000
                                                     2       34.1714280      326.67298720    0.00000000
                                                     2        5.9879750      126.58145910    0.00000000
                                      D - G
                                                     0      219.2666158        3.00000000    0.00000000
                                                     1      122.7297786       55.67931490    0.00000000
                                                     2       63.1063369      449.19873350    0.00000000
                                                     2       18.3684520      215.02690910    0.00000000
                                                     2        4.4972844       64.08409950    0.00000000
                                      F - G
                                                     0      108.5506037        4.00000000    0.00000000
                                                     1       56.4795527       51.80653350    0.00000000
                                                     2       29.2069159      231.21831130    0.00000000
                                                     2        9.5440543      119.00473860    0.00000000
                                                     2        2.8965118       15.34241880    0.00000000
    2         15
                                   No pseudopotential on this center.
    3          6
                                   No pseudopotential on this center.
    4          1
                                   No pseudopotential on this center.
    5          1
                                   No pseudopotential on this center.
    6          6
                                   No pseudopotential on this center.
    7          1
                                   No pseudopotential on this center.
    8          1
                                   No pseudopotential on this center.
    9          6
                                   No pseudopotential on this center.
   10          1
                                   No pseudopotential on this center.
   11          1
                                   No pseudopotential on this center.
   12          1
                                   No pseudopotential on this center.
   13          6
                                   No pseudopotential on this center.
   14          1
                                   No pseudopotential on this center.
   15          1
                                   No pseudopotential on this center.
   16          1
                                   No pseudopotential on this center.
   17         16
                                   No pseudopotential on this center.
   18          8
                                   No pseudopotential on this center.
   19          8
                                   No pseudopotential on this center.
   20          8
                                   No pseudopotential on this center.
   21          8
                                   No pseudopotential on this center.
   22          8
                                   No pseudopotential on this center.
   23          8
                                   No pseudopotential on this center.
   24          8
                                   No pseudopotential on this center.
   25          8
                                   No pseudopotential on this center.
   26          8
                                   No pseudopotential on this center.
   27          6
                                   No pseudopotential on this center.
   28          6
                                   No pseudopotential on this center.
   29          6
                                   No pseudopotential on this center.
   30          6
                                   No pseudopotential on this center.
   31          6
                                   No pseudopotential on this center.
   32          6
                                   No pseudopotential on this center.
   33          6
                                   No pseudopotential on this center.
   34          6
                                   No pseudopotential on this center.
   35          6
                                   No pseudopotential on this center.
   36          6
                                   No pseudopotential on this center.
   37          6
                                   No pseudopotential on this center.
   38          6
                                   No pseudopotential on this center.
   39          6
                                   No pseudopotential on this center.
   40          6
                                   No pseudopotential on this center.
   41          1
                                   No pseudopotential on this center.
   42          1
                                   No pseudopotential on this center.
   43          1
                                   No pseudopotential on this center.
   44          1
                                   No pseudopotential on this center.
   45          1
                                   No pseudopotential on this center.
   46          1
[...]
 0.00000918,0.00000026,-0.00000068,-0.00000185,-0.00000187,-0.00000649,
 -0.00000366,0.00000050,-0.00000013,0.00000077,-0.00001139,-0.00000287,
 0.00000211,0.00000073,0.00000080,-0.00000099,-0.00000414,0.00000094,-0
 .00000034,-0.00001286,-0.00000704,0.00000768,0.00000095,-0.00000058,0.
 00000030,-0.00000218,0.00000059,-0.00000048,0.00000059,0.00000020,0.00
 000023,-0.00000004,-0.00000071,0.00000002,-0.00000068,0.00000018,-0.00
 000003,0.00000017,0.00000080,-0.00000021,-0.00000058,-0.00000067,-0.00
 000047,0.00000070,-0.00000122,0.00000080,0.00000007,0.00000058,-0.0000
 0040,0.00000010,-0.00000008,-0.00000019,-0.00000044,0.00000012,-0.0000
 0011,-0.00000008,0.00000016,0.00000029,-0.00000008,-0.00000014,0.00000
 007,0.00000026,0.00000027,0.00000018,-0.00000007,-0.00000015,0.0000003
 0,0.00000035,-0.00000163,0.00000206,0.00000061,0.00000004,0.00000051,0
 .00000056,0.00000028,-0.00000033,-0.00000071,0.00000028,0.00000028,-0.
 00000030,0.,0.00000001,-0.00000882,0.00000205,-0.00000797,0.00000110,0
 .00000462,0.00000767,0.00001153,-0.00000888,0.00000864,-0.00000963,0.0
 0000550,-0.00001775,-0.00000417,-0.00000700,0.00000734,0.00000299,0.00
 000232,-0.00001049,0.00000453,0.00001359,-0.00002374,0.00000628,0.0000
 0805,0.00001760,0.00003878,0.00002658,0.00005684,-0.00002576,-0.000017
 14,-0.00005707,-0.00002926,-0.00002006,-0.00001497,0.00003137,0.000009
 22,0.00000938,-0.00000568,-0.00000126,0.00001309,-0.00000201,-0.000000
 49,-0.00000832,-0.00000703,-0.00001704,0.00001098,-0.00004783,-0.00006
 764,-0.00005217,-0.00000664,0.00000985,-0.00001496,0.00000450,-0.00000
 493,-0.00000375,0.00000413,-0.00001449,0.00000719,0.,-0.00000176,0.000
 01782,-0.00000443,-0.00000095,-0.00001350,-0.00000185,0.00000084,-0.00
 000619,-0.00000063,0.00000153,0.00000036,0.00000360,-0.00000277,0.0000
 0713,-0.00000311,0.00000179,-0.00000534,-0.00000049,-0.00000001,-0.000
 00260,-0.00000136,0.00000243,-0.00000137,0.00000079,-0.00000085,-0.000
 00072,-0.00000085,0.00000147,0.00000538,-0.00000063,-0.00000184,-0.000
 00088,0.00000373,-0.00000271,0.00000078,0.00000453,0.00000048,0.000003
 40,-0.00000813,0.00000108,0.00000659,0.00000168,-0.00000071,0.00002847
 ,0.00000396,-0.00002680,0.00000347,0.00001693,0.00000114,0.00000879,-0
 .00000040,-0.00000559,-0.00000157,-0.00000200,-0.00000392,-0.00000315,
 -0.00000116,0.00000561,0.00000304,-0.00000173,-0.00000035,-0.00000152,
 -0.00000151,0.00000054,-0.00000253,-0.00000029,-0.00000084,0.00000049,
 0.00001001,-0.00000081,0.00000829,-0.00000042,-0.00000074,0.00000010,0
 .00000108,-0.00000050,0.00000085,0.00000123,0.00000112,0.00000161,0.00
 000044,0.00000011,0.00000065,0.00005329,0.00005572,0.00004182,0.001516
 74,0.00509437,0.00458965,-0.00004365,0.00026275,-0.00047477,0.01515675
 ,-0.00168199,0.00157819,-0.00018794,0.00477425,0.00441118,-0.00010460,
 -0.00062807,-0.00093256,0.02423102,0.00807137,-0.04338013,-0.00071593,
 -0.00199468,-0.00294875,-0.01273002,0.00028579,0.00408501,-0.00064193,
 0.00011552,0.00027000,-0.02688881,-0.01219621,0.03530960,0.00002187,-0
 .00000257,0.00003921,-0.00004674,0.00009168,-0.00011915,-0.00004841,-0
 .00005238,0.00004045,0.00003852,-0.00003081,-0.00006165,0.00003246,0.0
 0004100,0.00003069,-0.00000356,-0.00003841,-0.00000364,0.00000821,0.00
 000360,0.00001407,0.00000992,-0.00000309,0.00001982,0.00001018,0.00000
 665,0.00000298,0.00000270,-0.00000654,0.00000651,0.00000399,-0.0000011
 1,-0.00001014,-0.00001354,-0.00000267,-0.00001021,0.00003819,-0.000012
 32,-0.00001355,-0.00000900,-0.00000850,0.00001382,-0.00000490,0.000003
 38,0.00000144,-0.00000672,-0.00001128,0.00001273,-0.00000379,-0.000012
 62,0.00000223,-0.00001210,-0.00001251,-0.00000243,-0.00000137,0.000002
 37,-0.00002780,-0.00000506,0.00000685,-0.00001226,-0.00000788,-0.00001
 339,-0.00001310,-0.00000065,-0.00000572,-0.00000424,-0.00001366,-0.000
 00850,-0.00000012,-0.00000684,-0.00000068,-0.00000153,-0.00001758,-0.0
 0000520,0.00000426,-0.00000660,-0.00000729,0.00000493,0.00001361,0.000
 00582,-0.00000599,-0.00000372,0.00000275,0.00001394,0.00000679,0.00000
 323,0.00000350,0.00000418,0.00000652,0.00000005,0.00000861,0.00001161,
 -0.00000301,0.00000477,-0.00001306,0.00003112,0.00000212,0.00000066,-0
 .00000124,0.00000233,0.00001428,0.00001155,-0.00000137,-0.00000055,-0.
 00000159,0.00001579,0.00000333,-0.00000071,-0.00000085,-0.00000078,0.0
 0000133,0.00000678,-0.00000015,0.00000304,0.00002008,0.00001008,-0.000
 00893,-0.00000173,0.00000138,-0.00000076,-0.00000127,-0.00000216,0.000
 00123,0.00000080,-0.00000079,0.00000136,-0.00000052,0.00000107,0.00000
 037,0.00000093,-0.00000019,0.00000034,-0.00000061,-0.00000101,0.000000
 28,-0.00000081,-0.00000056,-0.00000167,0.00000004,-0.00000117,0.000001
 53,0.00000035,0.00000056,0.00000016,0.00000016,-0.00000009,0.00000024,
 0.00000018,0.00000011,0.00000009,-0.00000024,-0.00000054,-0.00000045,0
 .00000030,0.00000039,-0.00000020,-0.00000055,-0.00000030,-0.00000012,0
 .00000027,0.00000018,-0.00000004,-0.00000161,0.00000122,-0.00000321,-0
 .00000051,0.00000005,-0.00000051,-0.00000045,-0.00000021,0.00000065,0.
 00000111,-0.00000049,0.00000020,0.00000028,-0.00000003,0.00000002,0.00
 000501,-0.00000126,-0.00000123,-0.00000178,0.00000005,0.00000224,-0.00
 001685,0.00001388,0.00001463,0.00000408,-0.00000737,-0.00001402,-0.000
 00318,0.00000241,0.00000135,0.00000496,-0.00000438,-0.00000152,0.00001
 409,-0.00001216,-0.00000513,-0.00000299,0.00000533,0.00000704,-0.00000
 528,0.00000245,-0.00000831,0.00000533,-0.00000558,0.00000488,0.0000047
 1,-0.00000263,0.00000074,-0.00000350,0.,-0.00000023,-0.00000201,0.0000
 0963,0.00000654,0.00000134,-0.00000901,-0.00000472,-0.00000953,0.00000
 097,-0.00000095,0.00003396,0.00003703,0.00002893,0.00000527,-0.0000057
 3,-0.00000034,-0.00000276,0.00000299,0.00000244,-0.00000110,0.00001270
 ,-0.00000499,-0.00000490,0.00001531,-0.00000611,0.00000377,-0.00000848
 ,0.00000221,0.00000439,-0.00001079,0.00000361,0.00000071,0.00000143,0.
 00000408,-0.00000654,0.00000877,0.00000033,0.00000329,-0.00000474,0.00
 000094,0.00000318,-0.00000523,-0.00000253,0.00000118,-0.00000026,0.000
 00045,-0.00000009,-0.00000060,-0.00000073,-0.00000315,0.00000388,0.000
 00010,-0.00000072,-0.00000051,-0.00000131,-0.00000245,0.00000082,0.000
 00007,-0.00000164,0.00000056,0.00000102,-0.00000357,0.00000178,-0.0000
 0178,0.00000501,0.00000233,0.00000049,0.00000106,0.00000145,0.00000155
 ,0.00000234,-0.00000114,0.00000043,-0.00000016,-0.00000343,0.00000011,
 0.00000122,-0.00000055,0.00000050,-0.00000136,0.00000124,0.00000001,0.
 00000098,0.00000034,0.00000043,0.00000092,0.00000116,0.00000169,-0.000
 00005,0.00000035,-0.00000025,-0.00000321,0.00000332,-0.00000232,0.0000
 0002,-0.00000010,-0.00000095,-0.00000070,0.00000068,-0.00000086,-0.000
 00051,0.00000114,-0.00000151,-0.00000042,0.00000138,0.00000056,-0.0000
 3057,-0.00003899,-0.00003558,-0.00067962,0.00071264,-0.00041664,-0.005
 49862,0.00202391,0.00030444,-0.00089979,0.00311377,-0.00072666,-0.0109
 6405,-0.02493900,0.01514707,-0.00067303,-0.00122350,0.00076800,0.01216
 752,0.01237764,-0.00777254,0.00046273,0.00070373,-0.00041894,-0.134845
 65,-0.10387488,0.06724886,0.00106383,0.00006625,-0.00057459,0.00082503
 ,-0.00067004,-0.00018504,0.13901095,0.00001390,0.00001229,0.00006033,0
 .00007746,-0.00005475,-0.00039461,0.00000355,-0.00007094,0.00004117,0.
 00000499,-0.00000223,-0.00000615,0.00000307,0.00000448,-0.00000438,0.0
 0002465,0.00002262,-0.00001283,-0.00002604,0.00000728,-0.00000111,-0.0
 0002235,0.00002382,-0.00004464,-0.00000360,0.00000163,0.00000206,0.000
 00038,-0.00000057,0.00000773,-0.00000368,0.00000468,0.00000196,0.00000
 127,-0.00000982,-0.00000663,-0.00003612,0.00002034,-0.00001795,0.00000
 283,0.00000177,0.00000536,-0.00001299,-0.00000594,0.00000967,0.0000045
 0,-0.00000067,-0.00000094,-0.00001231,-0.00000994,-0.00001980,-0.00002
 113,-0.00001739,0.00000252,-0.00000017,0.00000271,-0.00004395,-0.00000
 351,0.00000711,-0.00002028,-0.00001154,-0.00002153,-0.00001937,0.00000
 102,-0.00000956,-0.00000599,-0.00001827,-0.00001185,0.00000003,-0.0000
 0866,-0.00000140,-0.00000173,-0.00002142,-0.00000528,0.00000546,-0.000
 00776,-0.00000901,0.00000580,0.00001917,0.00001107,-0.00001555,-0.0000
 0803,0.00000447,0.00002639,0.00001025,0.00000528,0.00000297,0.00000591
 ,0.00000912,-0.00000005,0.00001277,0.00001638,-0.00000360,0.00000082,-
 0.00001585,0.00005277,0.00000405,0.00000046,-0.00000369,0.00000092,0.0
 0002290,0.00001676,-0.00000160,-0.00000084,-0.00000215,0.00002054,0.00
 000502,-0.00000128,-0.00000128,-0.00000110,0.00000185,0.00000875,-0.00
 000193,0.00000275,0.00002314,0.00001246,-0.00001064,-0.00000190,0.0000
 0126,-0.00000078,-0.00000344,0.00000009,0.00000208,0.00000167,-0.00000
 142,0.00000182,-0.00000100,0.00000130,0.00000086,0.00000114,-0.0000004
 0,0.00000030,-0.00000084,-0.00000109,0.00000048,-0.00000164,-0.0000008
 1,-0.00000260,-0.00000012,-0.00000168,0.00000301,0.00000025,0.00000067
 ,0.00000021,0.00000030,-0.00000003,0.00000018,-0.00000002,0.00000024,0
 .00000020,-0.00000048,-0.00000086,-0.00000066,0.00000032,0.00000051,-0
 .00000026,-0.00000074,-0.00000037,-0.00000012,0.00000041,0.00000022,-0
 .00000008,-0.00000135,0.00000099,-0.00000377,-0.00000068,0.00000044,-0
 .00000010,-0.00000053,0.,0.00000071,0.00000099,-0.00000057,0.00000029,
 0.00000027,0.00000010,0.,0.00000251,0.00000366,-0.00000436,-0.00000414
 ,-0.00000120,0.00000299,-0.00001014,0.00000057,0.00001732,0.00000258,0
 .00000420,-0.00001724,-0.00001062,-0.00000812,0.00001187,0.00001427,0.
 00000354,-0.00001301,0.00002266,0.00002001,-0.00001942,-0.00000890,0.0
 0000076,0.00000744,-0.00006450,-0.00003989,0.00001946,0.00003354,0.000
 01249,-0.00000002,0.00004928,0.00002122,-0.00002046,-0.00001017,-0.000
 00155,-0.00003372,-0.00001335,0.00001246,0.00002800,0.00000800,-0.0000
 1264,-0.00001596,-0.00003477,-0.00002819,0.00004553,-0.00000290,-0.000
 01626,-0.00003314,0.00002323,-0.00001038,-0.00001015,-0.00001162,0.000
 00040,0.00000975,-0.00000453,0.00000652,-0.00001000,-0.00000887,0.0000
 2931,-0.00000890,0.00000844,-0.00001660,0.00000133,0.00001057,-0.00002
 030,0.00000646,-0.00000035,0.00000235,0.00000835,-0.00001247,0.0000146
 2,0.00000304,0.00000650,-0.00000728,-0.00000003,0.00000734,-0.00000862
 ,-0.00000572,0.00000152,0.00000122,-0.00000081,0.00000055,0.00000025,-
 0.00000073,-0.00000554,0.00000205,0.00000434,-0.00000097,-0.00000153,0
 .00000101,0.00000054,-0.00000222,0.00000049,0.00000059,-0.00000011,-0.
 00000081,0.00000689,-0.00000344,0.00000156,-0.00000708,-0.00000855,0.0
 0000677,-0.00000629,-0.00001844,0.00001038,0.00000764,0.00000674,0.000
 00081,0.00000608,-0.00000850,-0.00000501,0.00000926,-0.00001098,0.0000
 0761,-0.00000477,0.00000514,0.00000391,0.00000361,-0.00000377,0.000002
 46,0.00000020,0.00000199,-0.00000182,-0.00000021,0.00000060,0.00000020
 ,-0.00001214,0.00001043,-0.00000550,0.00000019,-0.00000020,-0.00000172
 ,-0.00000134,0.00000097,-0.00000153,-0.00000197,0.00000119,-0.00000243
 ,-0.00000166,0.00000123,0.00000128,0.00001659,-0.00001016,-0.00001581,
 0.00069258,-0.00009814,-0.00051995,0.00120646,0.00275120,0.00239659,0.
 00392669,-0.00121804,0.00400890,0.00264356,0.00536639,-0.00147580,0.00
 022283,0.00016211,-0.00006022,-0.01519537,-0.01368430,0.01080808,-0.00
 076636,-0.00074302,0.00058247,-0.10391981,-0.20447931,0.10235666,-0.00
 053415,-0.00027007,-0.00193384,-0.00003376,-0.00001737,-0.00202016,0.1
 1173793,0.21236170,0.00000100,0.00000534,0.00003111,-0.00006077,-0.000
 52942,-0.00053934,0.00003222,0.00002207,-0.00002379,0.00000949,-0.0000
 0047,0.00000257,-0.00000262,-0.00001021,-0.00001603,0.00002958,0.00016
 916,-0.00004095,-0.00002674,-0.00000265,-0.00005095,-0.00000455,-0.000
 00645,-0.00000590,0.00000459,0.00001281,0.00001764,0.00000057,0.000005
 13,-0.00001116,0.00000439,-0.00000165,-0.00000043,-0.00000071,0.000010
 39,0.00002586,-0.00000764,-0.00002670,-0.00000309,-0.00000387,0.000004
 03,0.00000283,0.00000758,0.00000878,-0.00000118,0.00000069,0.00000551,
 -0.00000649,0.00001011,0.00000450,-0.00000510,0.00001693,0.00001126,-0
 .00001094,0.00000356,0.00000359,0.00000101,0.00000323,0.00000333,0.000
 00164,0.00000751,0.00001259,0.00000825,0.00000089,0.00000635,0.0000022
 9,0.00001630,0.00000981,-0.00000342,0.00000770,0.00000047,-0.00000061,
 0.00001675,0.00000242,-0.00000672,0.00000597,0.00000576,-0.00000590,-0
 .00001814,-0.00000588,0.00001010,-0.00000271,-0.00000305,-0.00000403,-
 0.00000680,-0.00000392,-0.00000146,-0.00000434,-0.00000646,0.00000283,
 -0.00000815,-0.00001126,0.00000433,-0.00000223,-0.00000273,-0.00000146
 ,-0.00000116,-0.00000020,-0.00000051,-0.00000230,-0.00001383,-0.000008
 67,0.00000095,-0.00000007,0.00000150,-0.00001848,-0.00000409,0.0000028
 6,0.00000112,0.00000120,-0.00000148,-0.00000636,0.00000343,0.00000075,
 -0.00001795,-0.00000858,0.00000968,0.00000157,-0.00000061,0.00000046,0
 .00000268,0.00000105,-0.00000225,-0.00000018,-0.00000009,0.00000005,0.
 00000038,-0.00000096,-0.00000034,-0.00000097,0.00000037,0.00000009,0.0
 0000063,0.00000080,-0.00000027,-0.00000031,-0.00000100,-0.00000019,0.0
 0000122,-0.00000125,0.00000013,0.00000006,0.00000079,-0.00000060,0.000
 00003,-0.00000013,-0.00000023,-0.00000048,0.00000002,-0.00000025,0.000
 00001,0.00000048,0.00000049,-0.00000023,-0.00000015,0.00000012,0.00000
 049,0.00000038,0.00000026,-0.00000019,-0.00000027,0.00000028,0.0000008
 3,-0.00000106,0.00000178,0.00000051,-0.00000046,0.00000008,0.00000067,
 0.00000025,-0.00000056,-0.00000070,0.00000031,0.00000043,-0.00000053,-
 0.00000016,0.00000008,-0.00000881,0.00000015,-0.00000202,0.00000352,0.
 00000241,0.00000071,0.00001823,-0.00000778,-0.00000406,-0.00000977,0.0
 0000379,0.00000136,0.00000484,-0.00000084,-0.00000232,-0.00000797,0.00
 000253,0.00000164,-0.00001422,0.00000250,0.00000107,0.00000887,0.00000
 009,0.00000258,0.00004000,0.00001523,0.00001221,-0.00002462,-0.0000041
 9,-0.00001894,-0.00002958,-0.00000867,0.00000442,0.00001414,-0.0000001
 2,0.00000722,0.00000126,-0.00000787,-0.00000404,-0.00000359,0.00000830
 ,0.00000246,0.00000963,-0.00001502,-0.00000911,0.00001687,-0.00003462,
 -0.00001427,-0.00001011,0.00000969,-0.00000391,0.00000718,-0.00000260,
 -0.00000791,0.00000274,-0.00000493,0.00000575,0.00000406,-0.00001705,0
 .00001528,-0.00000486,0.00000884,-0.00000887,-0.00000577,0.00001163,-0
 .00000696,-0.00000077,-0.00000055,-0.00000411,0.00000871,-0.00001016,0
 .00000348,-0.00000516,0.00000565,-0.00000377,-0.00000384,0.00000496,0.
 00000117,-0.00000208,0.00000082,-0.00000069,0.00000014,-0.00000043,0.0
 0000045,0.00000439,-0.00000317,0.00000042,0.00000062,0.00000021,-0.000
 00081,0.00000288,-0.00000099,0.00000061,0.00000316,0.00000041,0.000002
 50,-0.00000350,0.00000136,0.00000052,0.00000163,0.00000304,0.00000008,
 0.00000357,-0.00000237,-0.00000082,0.00000386,-0.00000060,0.00000123,-
 0.00000166,-0.00000038,-0.00000006,-0.00000193,0.00000148,-0.00000244,
 0.00000210,-0.00000193,-0.00000027,-0.00000331,0.00000314,-0.00000190,
 -0.00000185,0.00000215,0.00000047,0.00000050,-0.00000066,0.00000076,0.
 00000733,-0.00000629,0.00000553,-0.00000032,-0.00000026,0.00000107,0.0
 0000128,-0.00000088,0.00000130,0.00000119,-0.00000057,0.00000238,0.000
 00094,-0.00000104,-0.00000019,0.00001555,0.00002231,0.00000490,-0.0004
 8135,-0.00044563,-0.00052772,0.00082218,0.00239858,0.00600795,-0.00122
 728,0.00403948,0.00509912,0.00006909,0.00155853,0.00225896,-0.00003987
 ,0.00010571,0.00005953,0.00721888,0.00755722,-0.00190372,0.00039230,0.
 00037298,-0.00017049,0.06732493,0.10244390,-0.10036151,-0.00026334,-0.
 00199795,-0.00281516,-0.00053025,-0.00195135,-0.00267182,-0.07332186,-
 0.11372679,0.09566559\\0.00000131,0.00000032,0.,-0.00000124,-0.0000002
 1,-0.00000396,0.00000068,0.00000051,-0.00000389,0.00000096,0.00000311,
 -0.00000134,0.00000022,0.00000082,-0.00000236,-0.00000111,0.00000184,-
 0.00000128,-0.00000013,0.00000159,-0.00000144,-0.00000029,0.00000182,-
 0.00000185,-0.00000060,0.00000162,-0.00000286,-0.00000041,0.00000233,-
 0.00000247,-0.00000067,0.00000186,-0.00000262,-0.00000050,0.00000158,-
 0.00000305,-0.00000024,0.00000067,-0.00000211,-0.00000027,0.00000075,-
 0.00000165,-0.00000015,0.00000108,-0.00000185,-0.00000009,0.00000127,-
 0.00000171,-0.00000008,-0.00000085,-0.00000118,-0.00000011,0.00000009,
 -0.00000041,0.00000022,-0.00000171,0.00000011,0.00000043,-0.00000228,-
 0.00000060,-0.00000026,-0.00000181,0.00000103,0.00000063,-0.00000121,0
 .00000106,0.00000003,-0.00000017,0.00000070,0.00000016,-0.00000034,0.0
 0000037,-0.00000020,0.00000074,-0.00000051,-0.00000019,0.00000130,0.00
 000016,0.00000006,-0.00000026,-0.00000036,0.00000028,-0.00000113,-0.00
 000014,0.00000031,-0.00000083,0.00000034,-0.00000001,-0.00000023,0.000
 00032,0.00000006,0.00000030,0.00000018,0.00000041,-0.00000211,-0.00000
 018,0.00000045,-0.00000265,0.00000009,0.00000049,-0.00000186,0.0000011
 5,0.00000053,-0.00000220,0.00000102,0.00000004,0.,0.00000075,0.0000000
 4,0.00000018,0.00000138,-0.00000017,0.00000084,-0.00000008,-0.00000016
 ,0.00000101,-0.00000041,-0.00000023,0.00000088,-0.00000090,0.00000015,
 -0.00000051,0.00000016,0.00000015,-0.00000136,-0.00000057,0.00000011,-
 0.00000094,0.00000086,0.00000002,-0.00000043,-0.00000011,-0.00000004,0
 .00000029,0.00000050,0.00000054,-0.00000312,-0.00000013,0.00000044,-0.
 00000244,-0.00000007,0.00000051,-0.00000259,0.00000062,0.00000044,-0.0
 0000161,0.00000079,0.00000070,-0.00000281,0.00000033,0.00000032,-0.000
 00259,0.00000170,-0.00000009,0.00000070,0.00000133,0.00000010,0.,0.000
 00138,0.00000011,0.00000007,0.00000185,-0.00000020,0.00000116,-0.00000
 023,-0.00000015,0.00000110,0.00000044,-0.00000027,0.00000119,-0.000000
 90,-0.00000023,0.00000083,-0.00000133,-0.00000010,0.00000042,-0.000000
 80,0.00000012,-0.00000110,0.00000068,0.00000051,-0.00000038,0.00000092
 ,0.00000005,-0.00000135,-0.00000010,0.00000044,-0.00000138,0.00000089,
 0.00000033,-0.00000011,0.00000137,-0.00000016,0.00000024,0.00000199,-0
 .00000001,-0.00000064,0.00000015,0.,-0.00000026,0.00000008,0.00000084,
 0.00000021,-0.00000027,-0.00000041,0.00000082,0.00000019,-0.00000073,0
 .00000097,0.00000091,0.00000020,-0.00000036,0.00000032,-0.00000011,0.0
 0000003,0.00000109,0.00000015,-0.00000032,0.00000156,0.00000022,-0.000
 00006,0.00000004,0.00000084,-0.00000080,0.00000005,0.,0.00000029,0.000
 00137,-0.00000029,0.00000076,0.00000133,-0.00000053,0.00000083,0.00000
 085,-0.00000020,0.00000160,0.00000188,-0.00000028,0.00000193,0.0000014
 5,-0.00000012,0.00000139,0.00000231,0.00000003,0.00000092,0.00000278,0
 .00000002,0.00000123,0.00000349,-0.00000014,0.00000177,0.00000339,0.00
 000009,0.00000070,0.00000368,0.00000009,-0.00000015,0.00000155,0.00000
 023,-0.00000089,0.00000169,0.00000026,0.,0.00000124,-0.00000035,0.0000
 0004,0.00000053,0.00000022,-0.00000128,0.00000079,0.00000020,-0.000001
 11,0.00000020,0.00000026,-0.00000021,-0.00000087,-0.00000012,-0.000000
 22,-0.00000049,0.00000008,-0.00000113,0.00000009,0.00000020,-0.0000003
 4,-0.00000039,0.00000019,-0.00000069,0.00000002,0.00000010,-0.00000076
 ,0.00000076,0.00000007,0.00000056,0.00000078,-0.00000014,0.00000103,0.
 00000109,0.00000008,0.00000124,0.00000042,0.00000012,0.00000036,0.0000
 0174,-0.00000013,0.00000107,0.00000086,0.00000004,0.00000061,0.0000029
 1,0.00000002,0.00000067,0.00000244,-0.00000022,0.00000190,0.00000258,0
 .00000008,0.00000091,0.00000411,-0.00000074,0.00000011,0.00000052,0.00
 000035,-0.00000007,-0.00000157,-0.00000104,-0.00000009,-0.00000071,0.0
 0000003,-0.00000018,-0.00000283,-0.00000011,0.00000017,-0.00000338,-0.
 00000173,-0.00000207,-0.00000371,-0.00000019,-0.00000022,-0.00000233,-
 0.00000042,0.00000113,-0.00000235,-0.00000046,-0.00000008,-0.00000340,
 -0.00000007,-0.00000063,-0.00000388,-0.00000021,-0.00000003,-0.0000025
 4,-0.00000019,-0.00000061,-0.00000355\\\@


 SIC AS THE CAWSE OF EWERY THING IS, SIC WILBE THE EFFECT.
 -- PROVERBS AND REASONS OF THE YEAR 1585
           AS REPRINTED IN PAISLEY MAGAZINE 1828.
 Job cpu time:       2 days  5 hours 16 minutes 58.2 seconds.
 File lengths (MBytes):  RWF=  15380 Int=      0 D2E=      0 Chk=     84 Scr=      1
 Normal termination of Gaussian 09 at Tue Mar 21 18:20:14 2023.
