 Entering Gaussian System, Link 0=g09
 Input=AF31-helio.com
 Output=AF31-helio.log
 Initial command:
 /home/scr/programs/g09/l1.exe "/home/scr/helius/Gau-9851.inp" -scrdir="/home/scr/helius/"
 Entering Link 1 = /home/scr/programs/g09/l1.exe PID=      9853.
  
 Copyright (c) 1988,1990,1992,1993,1995,1998,2003,2009,2013,
            Gaussian, Inc.  All Rights Reserved.
  
 This is part of the Gaussian(R) 09 program.  It is based on
 the Gaussian(R) 03 system (copyright 2003, Gaussian, Inc.),
 the Gaussian(R) 98 system (copyright 1998, Gaussian, Inc.),
 the Gaussian(R) 94 system (copyright 1995, Gaussian, Inc.),
 the Gaussian 92(TM) system (copyright 1992, Gaussian, Inc.),
 the Gaussian 90(TM) system (copyright 1990, Gaussian, Inc.),
 the Gaussian 88(TM) system (copyright 1988, Gaussian, Inc.),
 the Gaussian 86(TM) system (copyright 1986, Carnegie Mellon
 University), and the Gaussian 82(TM) system (copyright 1983,
 Carnegie Mellon University). Gaussian is a federally registered
 trademark of Gaussian, Inc.
  
 This software contains proprietary and confidential information,
 including trade secrets, belonging to Gaussian, Inc.
  
 This software is provided under written license and may be
 used, copied, transmitted, or stored only in accord with that
 written license.
  
 The following legend is applicable only to US Government
 contracts under FAR:
  
                    RESTRICTED RIGHTS LEGEND
  
 Use, reproduction and disclosure by the US Government is
 subject to restrictions as set forth in subparagraphs (a)
 and (c) of the Commercial Computer Software - Restricted
 Rights clause in FAR 52.227-19.
  
 Gaussian, Inc.
 340 Quinnipiac St., Bldg. 40, Wallingford CT 06492
  
  
 ---------------------------------------------------------------
 Warning -- This program may not be used in any manner that
 competes with the business of Gaussian, Inc. or will provide
 assistance to any competitor of Gaussian, Inc.  The licensee
 of this program is prohibited from giving any competitor of
 Gaussian, Inc. access to this program.  By using this program,
 the user acknowledges that Gaussian, Inc. is engaged in the
 business of creating and licensing software in the field of
 computational chemistry and represents and warrants to the
 licensee that it is not a competitor of Gaussian, Inc. and that
 it will not use this program in any manner prohibited above.
 ---------------------------------------------------------------
  

 Cite this work as:
 Gaussian 09, Revision D.01,
 M. J. Frisch, G. W. Trucks, H. B. Schlegel, G. E. Scuseria, 
 M. A. Robb, J. R. Cheeseman, G. Scalmani, V. Barone, B. Mennucci, 
 G. A. Petersson, H. Nakatsuji, M. Caricato, X. Li, H. P. Hratchian, 
 A. F. Izmaylov, J. Bloino, G. Zheng, J. L. Sonnenberg, M. Hada, 
 M. Ehara, K. Toyota, R. Fukuda, J. Hasegawa, M. Ishida, T. Nakajima, 
 Y. Honda, O. Kitao, H. Nakai, T. Vreven, J. A. Montgomery, Jr., 
 J. E. Peralta, F. Ogliaro, M. Bearpark, J. J. Heyd, E. Brothers, 
 K. N. Kudin, V. N. Staroverov, T. Keith, R. Kobayashi, J. Normand, 
 K. Raghavachari, A. Rendell, J. C. Burant, S. S. Iyengar, J. Tomasi, 
 M. Cossi, N. Rega, J. M. Millam, M. Klene, J. E. Knox, J. B. Cross, 
 V. Bakken, C. Adamo, J. Jaramillo, R. Gomperts, R. E. Stratmann, 
 O. Yazyev, A. J. Austin, R. Cammi, C. Pomelli, J. W. Ochterski, 
 R. L. Martin, K. Morokuma, V. G. Zakrzewski, G. A. Voth, 
 P. Salvador, J. J. Dannenberg, S. Dapprich, A. D. Daniels, 
 O. Farkas, J. B. Foresman, J. V. Ortiz, J. Cioslowski, 
 and D. J. Fox, Gaussian, Inc., Wallingford CT, 2013.
 
 ******************************************
 Gaussian 09:  EM64L-G09RevD.01 24-Apr-2013
                 3-Apr-2023 
 ******************************************
 %mem=30000MB
 %nprocshared=8
 Will use up to    8 processors via shared memory.
 ----------------------------------------
 # opt freq=noraman b3lyp/gen pseudo=read
 ----------------------------------------
 1/14=-1,18=20,19=15,26=3,38=1/1,3;
 2/9=110,12=2,17=6,18=5,40=1/2;
 3/5=7,11=2,16=1,17=8,25=1,30=1,71=1,74=-5/1,2,3;
 4//1;
 5/5=2,38=5/2;
 6/7=2,8=2,9=2,10=2,28=1/1;
 7//1,2,3,16;
 1/14=-1,18=20,19=15,26=3/3(2);
 2/9=110/2;
 99//99;
 2/9=110/2;
 3/5=7,6=1,11=2,16=1,17=8,25=1,30=1,71=1,74=-5,82=7/1,2,3;
 4/5=5,16=3,69=1/1;
 5/5=2,38=5/2;
 7//1,2,3,16;
 1/14=-1,18=20,19=15,26=3/3(-5);
 2/9=110/2;
 6/7=2,8=2,9=2,10=2,19=2,28=1/1;
 99/9=1/99;
 --
 af
 --
 Symbolic Z-matrix:
 Charge =  0 Multiplicity = 1
 Au                    2.1122   -1.18958   0.40387 
 S                     0.01458  -2.01997   1.00921 
 P                     4.18905  -0.3914   -0.16067 
 O                    -1.01666   0.35083   0.44184 
 O                    -2.70712  -2.77299  -0.32154 
 O                    -3.37889  -3.61108   1.65802 
 O                    -4.84324  -0.88337  -0.21531 
 O                    -5.34099  -1.43213  -2.34257 
 O                    -4.00541   1.72086  -1.1002 
 O                    -5.29896   2.52966   0.55653 
 O                    -1.79598   2.88432   1.35853 
 O                    -1.04209   4.98409   1.19021 
 C                    -1.10701  -0.99919   0.02665 
 C                    -2.55581  -1.46446   0.21233 
 C                    -3.50056  -0.54693  -0.55461 
 C                    -3.25514   0.91102  -0.19998 
 C                    -1.7675    1.23146  -0.3656 
 C                    -3.10781  -3.76565   0.49271 
 C                    -3.1641   -5.06515  -0.24955 
 C                    -5.66879  -1.3147   -1.18749 
 C                    -7.026    -1.61672  -0.63143 
 C                    -5.00494   2.48122  -0.61185 
 C                    -5.67756   3.23881  -1.71439 
 C                    -1.4026    2.64925   0.00839 
 C                    -1.56278   4.10863   1.84179 
 C                    -2.02928   4.23499   3.25975 
 H                    -0.83633  -1.07098  -1.03689 
 H                    -2.80545  -1.46951   1.27773 
 H                    -3.363    -0.69384  -1.6312 
 H                    -3.5722    1.11537   0.82602 
 H                    -1.49173   1.10421  -1.42594 
 H                    -3.56479  -5.84414   0.39773 
 H                    -2.1568   -5.33824  -0.57841 
 H                    -3.78407  -4.95957  -1.14385 
 H                    -7.45202  -0.71097  -0.19013 
 H                    -6.94289  -2.36144   0.1651 
 H                    -7.67608  -1.98603  -1.42343 
 H                    -4.94645   3.86598  -2.2323 
 H                    -6.47614   3.85581  -1.30483 
 H                    -6.08508   2.53671  -2.44753 
 H                    -0.32155   2.78646  -0.09037 
 H                    -1.90546   3.35884  -0.6556 
 H                    -1.7922    5.22777   3.63995 
 H                    -1.55126   3.4712    3.8793 
 H                    -3.10932   4.06711   3.30687 
 C                     4.11055   1.27392  -0.88586 
 C                     4.85287   1.64973  -2.00911 
 C                     3.27576   2.21736  -0.27349 
 C                     4.76183   2.94722  -2.50862 
 H                     5.50492   0.93937  -2.50649 
 C                     3.19457   3.51416  -0.76783 
 H                     2.67821   1.93293   0.5893 
 C                     3.93676   3.88095  -1.88904 
 H                     5.34056   3.22581  -3.38423 
 H                     2.54394   4.2357   -0.28254 
 H                     3.86778   4.89144  -2.2807 
 C                     5.08274  -1.44354  -1.35815 
 H                     4.50328  -1.41549  -2.28733 
 H                     6.06086  -0.99817  -1.56835 
 C                     5.28546  -0.22554   1.3017 
 H                     4.76383   0.46311   1.9757 
 H                     5.28223  -1.20217   1.79879 
 C                     5.24202  -2.88048  -0.8666 
 H                     4.27016  -3.33619  -0.6518 
 H                     5.73886  -3.48222  -1.63326 
 H                     5.85016  -2.93318   0.04189 
 C                     6.70525   0.25128   1.01947 
 H                     7.24563   0.38095   1.96239 
 H                     7.26534  -0.46955   0.41629 
 H                     6.7113    1.21242   0.49588 
 

 GradGradGradGradGradGradGradGradGradGradGradGradGradGradGradGradGradGrad
 Berny optimization.
 Initialization pass.
                           ----------------------------
                           !    Initial Parameters    !
                           ! (Angstroms and Degrees)  !
 --------------------------                            --------------------------
 ! Name  Definition              Value          Derivative Info.                !
 --------------------------------------------------------------------------------
 ! R1    R(1,2)                  2.3358         estimate D2E/DX2                !
 ! R2    R(1,3)                  2.2955         estimate D2E/DX2                !
 ! R3    R(2,13)                 1.807          estimate D2E/DX2                !
 ! R4    R(3,46)                 1.8181         estimate D2E/DX2                !
 ! R5    R(3,57)                 1.8275         estimate D2E/DX2                !
 ! R6    R(3,60)                 1.8353         estimate D2E/DX2                !
 ! R7    R(4,13)                 1.4153         estimate D2E/DX2                !
 ! R8    R(4,17)                 1.4111         estimate D2E/DX2                !
 ! R9    R(5,14)                 1.4213         estimate D2E/DX2                !
 ! R10   R(5,18)                 1.345          estimate D2E/DX2                !
 ! R11   R(6,18)                 1.2064         estimate D2E/DX2                !
 ! R12   R(7,15)                 1.4252         estimate D2E/DX2                !
 ! R13   R(7,20)                 1.3464         estimate D2E/DX2                !
 ! R14   R(8,20)                 1.2064         estimate D2E/DX2                !
 ! R15   R(9,16)                 1.4245         estimate D2E/DX2                !
 ! R16   R(9,22)                 1.3475         estimate D2E/DX2                !
 ! R17   R(10,22)                1.2058         estimate D2E/DX2                !
 ! R18   R(11,24)                1.4258         estimate D2E/DX2                !
 ! R19   R(11,25)                1.3367         estimate D2E/DX2                !
 ! R20   R(12,25)                1.2092         estimate D2E/DX2                !
 ! R21   R(13,14)                1.533          estimate D2E/DX2                !
 ! R22   R(13,27)                1.0998         estimate D2E/DX2                !
 ! R23   R(14,15)                1.524          estimate D2E/DX2                !
 ! R24   R(14,28)                1.0943         estimate D2E/DX2                !
 ! R25   R(15,16)                1.5204         estimate D2E/DX2                !
 ! R26   R(15,29)                1.0952         estimate D2E/DX2                !
 ! R27   R(16,17)                1.5307         estimate D2E/DX2                !
 ! R28   R(16,30)                1.0931         estimate D2E/DX2                !
 ! R29   R(17,24)                1.511          estimate D2E/DX2                !
 ! R30   R(17,31)                1.103          estimate D2E/DX2                !
 ! R31   R(18,19)                1.4976         estimate D2E/DX2                !
 ! R32   R(19,32)                1.0892         estimate D2E/DX2                !
 ! R33   R(19,33)                1.0942         estimate D2E/DX2                !
 ! R34   R(19,34)                1.0933         estimate D2E/DX2                !
 ! R35   R(20,21)                1.4975         estimate D2E/DX2                !
 ! R36   R(21,35)                1.0939         estimate D2E/DX2                !
 ! R37   R(21,36)                1.0936         estimate D2E/DX2                !
 ! R38   R(21,37)                1.0892         estimate D2E/DX2                !
 ! R39   R(22,23)                1.4973         estimate D2E/DX2                !
 ! R40   R(23,38)                1.0937         estimate D2E/DX2                !
 ! R41   R(23,39)                1.0891         estimate D2E/DX2                !
 ! R42   R(23,40)                1.0938         estimate D2E/DX2                !
 ! R43   R(24,41)                1.0942         estimate D2E/DX2                !
 ! R44   R(24,42)                1.0942         estimate D2E/DX2                !
 ! R45   R(25,26)                1.4981         estimate D2E/DX2                !
 ! R46   R(26,43)                1.0892         estimate D2E/DX2                !
 ! R47   R(26,44)                1.0935         estimate D2E/DX2                !
 ! R48   R(26,45)                1.094          estimate D2E/DX2                !
 ! R49   R(46,47)                1.3978         estimate D2E/DX2                !
 ! R50   R(46,48)                1.4007         estimate D2E/DX2                !
 ! R51   R(47,49)                1.3933         estimate D2E/DX2                !
 ! R52   R(47,50)                1.085          estimate D2E/DX2                !
 ! R53   R(48,51)                1.3902         estimate D2E/DX2                !
 ! R54   R(48,52)                1.0874         estimate D2E/DX2                !
 ! R55   R(49,53)                1.3916         estimate D2E/DX2                !
 ! R56   R(49,54)                1.0859         estimate D2E/DX2                !
 ! R57   R(51,53)                1.3937         estimate D2E/DX2                !
 ! R58   R(51,55)                1.086          estimate D2E/DX2                !
 ! R59   R(53,56)                1.0859         estimate D2E/DX2                !
 ! R60   R(57,58)                1.0954         estimate D2E/DX2                !
 ! R61   R(57,59)                1.0951         estimate D2E/DX2                !
 ! R62   R(57,63)                1.527          estimate D2E/DX2                !
 ! R63   R(60,61)                1.0957         estimate D2E/DX2                !
 ! R64   R(60,62)                1.0959         estimate D2E/DX2                !
 ! R65   R(60,67)                1.5241         estimate D2E/DX2                !
 ! R66   R(63,64)                1.0947         estimate D2E/DX2                !
 ! R67   R(63,65)                1.0939         estimate D2E/DX2                !
 ! R68   R(63,66)                1.0945         estimate D2E/DX2                !
 ! R69   R(67,68)                1.0945         estimate D2E/DX2                !
 ! R70   R(67,69)                1.0941         estimate D2E/DX2                !
 ! R71   R(67,70)                1.0945         estimate D2E/DX2                !
 ! A1    A(1,2,13)             102.4535         estimate D2E/DX2                !
 ! A2    A(1,3,46)             112.1815         estimate D2E/DX2                !
 ! A3    A(1,3,57)             113.7918         estimate D2E/DX2                !
 ! A4    A(1,3,60)             112.085          estimate D2E/DX2                !
 ! A5    A(46,3,57)            106.6847         estimate D2E/DX2                !
 ! A6    A(46,3,60)            105.1208         estimate D2E/DX2                !
 ! A7    A(57,3,60)            106.3802         estimate D2E/DX2                !
 ! A8    A(13,4,17)            113.1693         estimate D2E/DX2                !
 ! A9    A(14,5,18)            118.9344         estimate D2E/DX2                !
 ! A10   A(15,7,20)            118.7765         estimate D2E/DX2                !
 ! A11   A(16,9,22)            118.8469         estimate D2E/DX2                !
 ! A12   A(24,11,25)           116.4369         estimate D2E/DX2                !
 ! A13   A(2,13,4)             109.8588         estimate D2E/DX2                !
 ! A14   A(2,13,14)            110.4438         estimate D2E/DX2                !
 ! A15   A(2,13,27)            109.6446         estimate D2E/DX2                !
 ! A16   A(4,13,14)            108.319          estimate D2E/DX2                !
 ! A17   A(4,13,27)            109.2838         estimate D2E/DX2                !
 ! A18   A(14,13,27)           109.2641         estimate D2E/DX2                !
 ! A19   A(5,14,13)            109.5447         estimate D2E/DX2                !
 ! A20   A(5,14,15)            107.4128         estimate D2E/DX2                !
 ! A21   A(5,14,28)            109.7044         estimate D2E/DX2                !
 ! A22   A(13,14,15)           110.0106         estimate D2E/DX2                !
 ! A23   A(13,14,28)           109.5689         estimate D2E/DX2                !
 ! A24   A(15,14,28)           110.568          estimate D2E/DX2                !
 ! A25   A(7,15,14)            108.7896         estimate D2E/DX2                !
 ! A26   A(7,15,16)            108.8396         estimate D2E/DX2                !
 ! A27   A(7,15,29)            108.7048         estimate D2E/DX2                !
 ! A28   A(14,15,16)           111.0924         estimate D2E/DX2                !
 ! A29   A(14,15,29)           109.6364         estimate D2E/DX2                !
 ! A30   A(16,15,29)           109.7324         estimate D2E/DX2                !
 ! A31   A(9,16,15)            108.2246         estimate D2E/DX2                !
 ! A32   A(9,16,17)            108.9344         estimate D2E/DX2                !
 ! A33   A(9,16,30)            109.5176         estimate D2E/DX2                !
 ! A34   A(15,16,17)           109.4132         estimate D2E/DX2                !
 ! A35   A(15,16,30)           110.5705         estimate D2E/DX2                !
 ! A36   A(17,16,30)           110.1388         estimate D2E/DX2                !
 ! A37   A(4,17,16)            108.9387         estimate D2E/DX2                !
 ! A38   A(4,17,24)            108.3875         estimate D2E/DX2                !
 ! A39   A(4,17,31)            110.1851         estimate D2E/DX2                !
 ! A40   A(16,17,24)           113.8495         estimate D2E/DX2                !
 ! A41   A(16,17,31)           108.8346         estimate D2E/DX2                !
 ! A42   A(24,17,31)           106.6079         estimate D2E/DX2                !
 ! A43   A(5,18,6)             123.8606         estimate D2E/DX2                !
 ! A44   A(5,18,19)            110.5836         estimate D2E/DX2                !
 ! A45   A(6,18,19)            125.5558         estimate D2E/DX2                !
 ! A46   A(18,19,32)           109.8697         estimate D2E/DX2                !
 ! A47   A(18,19,33)           109.324          estimate D2E/DX2                !
 ! A48   A(18,19,34)           110.0558         estimate D2E/DX2                !
 ! A49   A(32,19,33)           109.8012         estimate D2E/DX2                !
 ! A50   A(32,19,34)           110.2773         estimate D2E/DX2                !
 ! A51   A(33,19,34)           107.474          estimate D2E/DX2                !
 ! A52   A(7,20,8)             123.7743         estimate D2E/DX2                !
 ! A53   A(7,20,21)            110.6227         estimate D2E/DX2                !
 ! A54   A(8,20,21)            125.6028         estimate D2E/DX2                !
 ! A55   A(20,21,35)           109.6201         estimate D2E/DX2                !
 ! A56   A(20,21,36)           109.8113         estimate D2E/DX2                !
 ! A57   A(20,21,37)           109.8353         estimate D2E/DX2                !
 ! A58   A(35,21,36)           107.4345         estimate D2E/DX2                !
 ! A59   A(35,21,37)           109.9783         estimate D2E/DX2                !
 ! A60   A(36,21,37)           110.1262         estimate D2E/DX2                !
 ! A61   A(9,22,10)            123.6917         estimate D2E/DX2                !
 ! A62   A(9,22,23)            110.6017         estimate D2E/DX2                !
 ! A63   A(10,22,23)           125.7066         estimate D2E/DX2                !
 ! A64   A(22,23,38)           109.7882         estimate D2E/DX2                !
 ! A65   A(22,23,39)           109.8235         estimate D2E/DX2                !
 ! A66   A(22,23,40)           109.6407         estimate D2E/DX2                !
 ! A67   A(38,23,39)           110.0827         estimate D2E/DX2                !
 ! A68   A(38,23,40)           107.4417         estimate D2E/DX2                !
 ! A69   A(39,23,40)           110.0295         estimate D2E/DX2                !
 ! A70   A(11,24,17)           108.8113         estimate D2E/DX2                !
 ! A71   A(11,24,41)           109.7179         estimate D2E/DX2                !
 ! A72   A(11,24,42)           109.9324         estimate D2E/DX2                !
 ! A73   A(17,24,41)           109.5069         estimate D2E/DX2                !
 ! A74   A(17,24,42)           110.3233         estimate D2E/DX2                !
 ! A75   A(41,24,42)           108.5388         estimate D2E/DX2                !
 ! A76   A(11,25,12)           122.9181         estimate D2E/DX2                !
 ! A77   A(11,25,26)           111.4146         estimate D2E/DX2                !
 ! A78   A(12,25,26)           125.667          estimate D2E/DX2                !
 ! A79   A(25,26,43)           109.846          estimate D2E/DX2                !
 ! A80   A(25,26,44)           109.9528         estimate D2E/DX2                !
 ! A81   A(25,26,45)           109.5871         estimate D2E/DX2                !
 ! A82   A(43,26,44)           110.104          estimate D2E/DX2                !
 ! A83   A(43,26,45)           109.8595         estimate D2E/DX2                !
 ! A84   A(44,26,45)           107.4564         estimate D2E/DX2                !
 ! A85   A(3,46,47)            122.9469         estimate D2E/DX2                !
 ! A86   A(3,46,48)            117.9244         estimate D2E/DX2                !
 ! A87   A(47,46,48)           119.1251         estimate D2E/DX2                !
 ! A88   A(46,47,49)           120.2485         estimate D2E/DX2                !
 ! A89   A(46,47,50)           120.7636         estimate D2E/DX2                !
 ! A90   A(49,47,50)           118.9877         estimate D2E/DX2                !
 ! A91   A(46,48,51)           120.5068         estimate D2E/DX2                !
 ! A92   A(46,48,52)           119.8828         estimate D2E/DX2                !
 ! A93   A(51,48,52)           119.6076         estimate D2E/DX2                !
 ! A94   A(47,49,53)           120.2628         estimate D2E/DX2                !
 ! A95   A(47,49,54)           119.5489         estimate D2E/DX2                !
 ! A96   A(53,49,54)           120.1882         estimate D2E/DX2                !
 ! A97   A(48,51,53)           120.0295         estimate D2E/DX2                !
 ! A98   A(48,51,55)           119.7253         estimate D2E/DX2                !
 ! A99   A(53,51,55)           120.2425         estimate D2E/DX2                !
 ! A100  A(49,53,51)           119.8237         estimate D2E/DX2                !
 ! A101  A(49,53,56)           120.0964         estimate D2E/DX2                !
 ! A102  A(51,53,56)           120.0793         estimate D2E/DX2                !
 ! A103  A(3,57,58)            106.4038         estimate D2E/DX2                !
 ! A104  A(3,57,59)            109.1728         estimate D2E/DX2                !
 ! A105  A(3,57,63)            112.4483         estimate D2E/DX2                !
 ! A106  A(58,57,59)           107.4124         estimate D2E/DX2                !
 ! A107  A(58,57,63)           110.6294         estimate D2E/DX2                !
 ! A108  A(59,57,63)           110.5679         estimate D2E/DX2                !
 ! A109  A(3,60,61)            105.2198         estimate D2E/DX2                !
 ! A110  A(3,60,62)            106.2086         estimate D2E/DX2                !
 ! A111  A(3,60,67)            115.9288         estimate D2E/DX2                !
 ! A112  A(61,60,62)           106.2415         estimate D2E/DX2                !
 ! A113  A(61,60,67)           111.1476         estimate D2E/DX2                !
 ! A114  A(62,60,67)           111.4425         estimate D2E/DX2                !
 ! A115  A(57,63,64)           111.2414         estimate D2E/DX2                !
 ! A116  A(57,63,65)           109.8402         estimate D2E/DX2                !
 ! A117  A(57,63,66)           111.7441         estimate D2E/DX2                !
 ! A118  A(64,63,65)           108.1643         estimate D2E/DX2                !
 ! A119  A(64,63,66)           108.0815         estimate D2E/DX2                !
 ! A120  A(65,63,66)           107.6297         estimate D2E/DX2                !
 ! A121  A(60,67,68)           109.7234         estimate D2E/DX2                !
 ! A122  A(60,67,69)           111.8917         estimate D2E/DX2                !
 ! A123  A(60,67,70)           111.6214         estimate D2E/DX2                !
 ! A124  A(68,67,69)           107.4723         estimate D2E/DX2                !
 ! A125  A(68,67,70)           107.7793         estimate D2E/DX2                !
 ! A126  A(69,67,70)           108.1782         estimate D2E/DX2                !
 ! A127  L(2,1,3,12,-1)        180.4876         estimate D2E/DX2                !
 ! A128  L(2,1,3,12,-2)        179.1664         estimate D2E/DX2                !
 ! D1    D(13,2,3,46)           19.7744         estimate D2E/DX2                !
 ! D2    D(13,2,3,57)         -101.7911         estimate D2E/DX2                !
 ! D3    D(13,2,3,60)          137.7475         estimate D2E/DX2                !
 ! D4    D(1,2,13,4)           -64.6188         estimate D2E/DX2                !
 ! D5    D(1,2,13,14)          175.9564         estimate D2E/DX2                !
 ! D6    D(1,2,13,27)           55.4974         estimate D2E/DX2                !
 ! D7    D(1,3,46,47)         -136.7781         estimate D2E/DX2                !
 ! D8    D(1,3,46,48)           43.9197         estimate D2E/DX2                !
 ! D9    D(57,3,46,47)         -11.5379         estimate D2E/DX2                !
 ! D10   D(57,3,46,48)         169.1598         estimate D2E/DX2                !
 ! D11   D(60,3,46,47)         101.1649         estimate D2E/DX2                !
 ! D12   D(60,3,46,48)         -78.1373         estimate D2E/DX2                !
 ! D13   D(1,3,57,58)           64.7078         estimate D2E/DX2                !
 ! D14   D(1,3,57,59)         -179.658          estimate D2E/DX2                !
 ! D15   D(1,3,57,63)          -56.5582         estimate D2E/DX2                !
 ! D16   D(46,3,57,58)         -59.5475         estimate D2E/DX2                !
 ! D17   D(46,3,57,59)          56.0867         estimate D2E/DX2                !
 ! D18   D(46,3,57,63)         179.1864         estimate D2E/DX2                !
 ! D19   D(60,3,57,58)        -171.383          estimate D2E/DX2                !
 ! D20   D(60,3,57,59)         -55.7488         estimate D2E/DX2                !
 ! D21   D(60,3,57,63)          67.351          estimate D2E/DX2                !
 ! D22   D(1,3,60,61)          -58.8756         estimate D2E/DX2                !
 ! D23   D(1,3,60,62)           53.5162         estimate D2E/DX2                !
 ! D24   D(1,3,60,67)          177.8937         estimate D2E/DX2                !
 ! D25   D(46,3,60,61)          63.2439         estimate D2E/DX2                !
 ! D26   D(46,3,60,62)         175.6357         estimate D2E/DX2                !
 ! D27   D(46,3,60,67)         -59.9867         estimate D2E/DX2                !
 ! D28   D(57,3,60,61)         176.1617         estimate D2E/DX2                !
 ! D29   D(57,3,60,62)         -71.4466         estimate D2E/DX2                !
 ! D30   D(57,3,60,67)          52.931          estimate D2E/DX2                !
 ! D31   D(17,4,13,2)          174.2103         estimate D2E/DX2                !
 ! D32   D(17,4,13,14)         -65.0739         estimate D2E/DX2                !
 ! D33   D(17,4,13,27)          53.8752         estimate D2E/DX2                !
 ! D34   D(13,4,17,16)          65.7122         estimate D2E/DX2                !
 ! D35   D(13,4,17,24)        -169.9176         estimate D2E/DX2                !
 ! D36   D(13,4,17,31)         -53.6149         estimate D2E/DX2                !
 ! D37   D(18,5,14,13)         120.3755         estimate D2E/DX2                !
 ! D38   D(18,5,14,15)        -120.1595         estimate D2E/DX2                !
 ! D39   D(18,5,14,28)           0.0666         estimate D2E/DX2                !
 ! D40   D(14,5,18,6)            1.6631         estimate D2E/DX2                !
 ! D41   D(14,5,18,19)        -178.2754         estimate D2E/DX2                !
 ! D42   D(20,7,15,14)        -118.4694         estimate D2E/DX2                !
 ! D43   D(20,7,15,16)         120.3502         estimate D2E/DX2                !
 ! D44   D(20,7,15,29)           0.868          estimate D2E/DX2                !
 ! D45   D(15,7,20,8)           -0.2303         estimate D2E/DX2                !
 ! D46   D(15,7,20,21)         179.9059         estimate D2E/DX2                !
 ! D47   D(22,9,16,15)         115.2593         estimate D2E/DX2                !
 ! D48   D(22,9,16,17)        -125.8657         estimate D2E/DX2                !
 ! D49   D(22,9,16,30)          -5.3497         estimate D2E/DX2                !
 ! D50   D(16,9,22,10)           0.7816         estimate D2E/DX2                !
 ! D51   D(16,9,22,23)        -179.2548         estimate D2E/DX2                !
 ! D52   D(25,11,24,17)       -178.9101         estimate D2E/DX2                !
 ! D53   D(25,11,24,41)         61.2997         estimate D2E/DX2                !
 ! D54   D(25,11,24,42)        -57.9911         estimate D2E/DX2                !
 ! D55   D(24,11,25,12)         -0.3291         estimate D2E/DX2                !
 ! D56   D(24,11,25,26)        179.4881         estimate D2E/DX2                !
 ! D57   D(2,13,14,5)          -65.4699         estimate D2E/DX2                !
 ! D58   D(2,13,14,15)         176.6752         estimate D2E/DX2                !
 ! D59   D(2,13,14,28)          54.9217         estimate D2E/DX2                !
 ! D60   D(4,13,14,5)          174.1783         estimate D2E/DX2                !
 ! D61   D(4,13,14,15)          56.3233         estimate D2E/DX2                !
 ! D62   D(4,13,14,28)         -65.4302         estimate D2E/DX2                !
 ! D63   D(27,13,14,5)          55.2167         estimate D2E/DX2                !
 ! D64   D(27,13,14,15)        -62.6382         estimate D2E/DX2                !
 ! D65   D(27,13,14,28)        175.6082         estimate D2E/DX2                !
 ! D66   D(5,14,15,7)           68.9408         estimate D2E/DX2                !
 ! D67   D(5,14,15,16)        -171.2692         estimate D2E/DX2                !
 ! D68   D(5,14,15,29)         -49.8135         estimate D2E/DX2                !
 ! D69   D(13,14,15,7)        -171.8926         estimate D2E/DX2                !
 ! D70   D(13,14,15,16)        -52.1026         estimate D2E/DX2                !
 ! D71   D(13,14,15,29)         69.3532         estimate D2E/DX2                !
 ! D72   D(28,14,15,7)         -50.7358         estimate D2E/DX2                !
 ! D73   D(28,14,15,16)         69.0543         estimate D2E/DX2                !
 ! D74   D(28,14,15,29)       -169.49           estimate D2E/DX2                !
 ! D75   D(7,15,16,9)          -69.6549         estimate D2E/DX2                !
 ! D76   D(7,15,16,17)         171.7739         estimate D2E/DX2                !
 ! D77   D(7,15,16,30)          50.2962         estimate D2E/DX2                !
 ! D78   D(14,15,16,9)         170.5848         estimate D2E/DX2                !
 ! D79   D(14,15,16,17)         52.0136         estimate D2E/DX2                !
 ! D80   D(14,15,16,30)        -69.4641         estimate D2E/DX2                !
 ! D81   D(29,15,16,9)          49.1853         estimate D2E/DX2                !
 ! D82   D(29,15,16,17)        -69.3859         estimate D2E/DX2                !
 ! D83   D(29,15,16,30)        169.1363         estimate D2E/DX2                !
 ! D84   D(9,16,17,4)         -175.0456         estimate D2E/DX2                !
 ! D85   D(9,16,17,24)          63.8683         estimate D2E/DX2                !
 ! D86   D(9,16,17,31)         -54.8812         estimate D2E/DX2                !
 ! D87   D(15,16,17,4)         -56.9166         estimate D2E/DX2                !
 ! D88   D(15,16,17,24)       -178.0027         estimate D2E/DX2                !
 ! D89   D(15,16,17,31)         63.2479         estimate D2E/DX2                !
 ! D90   D(30,16,17,4)          64.8213         estimate D2E/DX2                !
 ! D91   D(30,16,17,24)        -56.2647         estimate D2E/DX2                !
 ! D92   D(30,16,17,31)       -175.0142         estimate D2E/DX2                !
 ! D93   D(4,17,24,11)         -63.9936         estimate D2E/DX2                !
 ! D94   D(4,17,24,41)          55.9275         estimate D2E/DX2                !
 ! D95   D(4,17,24,42)         175.3277         estimate D2E/DX2                !
 ! D96   D(16,17,24,11)         57.3994         estimate D2E/DX2                !
 ! D97   D(16,17,24,41)        177.3205         estimate D2E/DX2                !
 ! D98   D(16,17,24,42)        -63.2793         estimate D2E/DX2                !
 ! D99   D(31,17,24,11)        177.4127         estimate D2E/DX2                !
 ! D100  D(31,17,24,41)        -62.6662         estimate D2E/DX2                !
 ! D101  D(31,17,24,42)         56.734          estimate D2E/DX2                !
 ! D102  D(5,18,19,32)        -175.5177         estimate D2E/DX2                !
 ! D103  D(5,18,19,33)          63.9227         estimate D2E/DX2                !
 ! D104  D(5,18,19,34)         -53.9015         estimate D2E/DX2                !
 ! D105  D(6,18,19,32)           4.5451         estimate D2E/DX2                !
 ! D106  D(6,18,19,33)        -116.0145         estimate D2E/DX2                !
 ! D107  D(6,18,19,34)         126.1613         estimate D2E/DX2                !
 ! D108  D(7,20,21,35)          60.3565         estimate D2E/DX2                !
 ! D109  D(7,20,21,36)         -57.4518         estimate D2E/DX2                !
 ! D110  D(7,20,21,37)        -178.7002         estimate D2E/DX2                !
 ! D111  D(8,20,21,35)        -119.5043         estimate D2E/DX2                !
 ! D112  D(8,20,21,36)         122.6875         estimate D2E/DX2                !
 ! D113  D(8,20,21,37)           1.439          estimate D2E/DX2                !
 ! D114  D(9,22,23,38)         -58.2841         estimate D2E/DX2                !
 ! D115  D(9,22,23,39)        -179.4562         estimate D2E/DX2                !
 ! D116  D(9,22,23,40)          59.5315         estimate D2E/DX2                !
 ! D117  D(10,22,23,38)        121.6787         estimate D2E/DX2                !
 ! D118  D(10,22,23,39)          0.5066         estimate D2E/DX2                !
 ! D119  D(10,22,23,40)       -120.5057         estimate D2E/DX2                !
 ! D120  D(11,25,26,43)        177.7987         estimate D2E/DX2                !
 ! D121  D(11,25,26,44)         56.4802         estimate D2E/DX2                !
 ! D122  D(11,25,26,45)        -61.419          estimate D2E/DX2                !
 ! D123  D(12,25,26,43)         -2.3903         estimate D2E/DX2                !
 ! D124  D(12,25,26,44)       -123.7088         estimate D2E/DX2                !
 ! D125  D(12,25,26,45)        118.3921         estimate D2E/DX2                !
 ! D126  D(3,46,47,49)        -179.2153         estimate D2E/DX2                !
 ! D127  D(3,46,47,50)           0.9393         estimate D2E/DX2                !
 ! D128  D(48,46,47,49)          0.079          estimate D2E/DX2                !
 ! D129  D(48,46,47,50)       -179.7664         estimate D2E/DX2                !
 ! D130  D(3,46,48,51)         178.7573         estimate D2E/DX2                !
 ! D131  D(3,46,48,52)          -1.851          estimate D2E/DX2                !
 ! D132  D(47,46,48,51)         -0.5724         estimate D2E/DX2                !
 ! D133  D(47,46,48,52)        178.8192         estimate D2E/DX2                !
 ! D134  D(46,47,49,53)          0.3431         estimate D2E/DX2                !
 ! D135  D(46,47,49,54)       -179.7579         estimate D2E/DX2                !
 ! D136  D(50,47,49,53)       -179.8087         estimate D2E/DX2                !
 ! D137  D(50,47,49,54)          0.0903         estimate D2E/DX2                !
 ! D138  D(46,48,51,53)          0.644          estimate D2E/DX2                !
 ! D139  D(46,48,51,55)       -179.9385         estimate D2E/DX2                !
 ! D140  D(52,48,51,53)       -178.7493         estimate D2E/DX2                !
 ! D141  D(52,48,51,55)          0.6681         estimate D2E/DX2                !
 ! D142  D(47,49,53,51)         -0.2751         estimate D2E/DX2                !
 ! D143  D(47,49,53,56)       -179.9943         estimate D2E/DX2                !
 ! D144  D(54,49,53,51)        179.8265         estimate D2E/DX2                !
 ! D145  D(54,49,53,56)          0.1073         estimate D2E/DX2                !
 ! D146  D(48,51,53,49)         -0.2169         estimate D2E/DX2                !
 ! D147  D(48,51,53,56)        179.5023         estimate D2E/DX2                !
 ! D148  D(55,51,53,49)       -179.6313         estimate D2E/DX2                !
 ! D149  D(55,51,53,56)          0.0879         estimate D2E/DX2                !
 ! D150  D(3,57,63,64)          57.6137         estimate D2E/DX2                !
 ! D151  D(3,57,63,65)         177.3378         estimate D2E/DX2                !
 ! D152  D(3,57,63,66)         -63.2856         estimate D2E/DX2                !
 ! D153  D(58,57,63,64)        -61.2044         estimate D2E/DX2                !
 ! D154  D(58,57,63,65)         58.5196         estimate D2E/DX2                !
 ! D155  D(58,57,63,66)        177.8963         estimate D2E/DX2                !
 ! D156  D(59,57,63,64)        179.9283         estimate D2E/DX2                !
 ! D157  D(59,57,63,65)        -60.3477         estimate D2E/DX2                !
 ! D158  D(59,57,63,66)         59.029          estimate D2E/DX2                !
 ! D159  D(3,60,67,68)         176.058          estimate D2E/DX2                !
 ! D160  D(3,60,67,69)         -64.7456         estimate D2E/DX2                !
 ! D161  D(3,60,67,70)          56.6494         estimate D2E/DX2                !
 ! D162  D(61,60,67,68)         55.988          estimate D2E/DX2                !
 ! D163  D(61,60,67,69)        175.1844         estimate D2E/DX2                !
 ! D164  D(61,60,67,70)        -63.4206         estimate D2E/DX2                !
 ! D165  D(62,60,67,68)        -62.3132         estimate D2E/DX2                !
 ! D166  D(62,60,67,69)         56.8832         estimate D2E/DX2                !
 ! D167  D(62,60,67,70)        178.2782         estimate D2E/DX2                !
 --------------------------------------------------------------------------------
 Trust Radius=3.00D-01 FncErr=1.00D-07 GrdErr=1.00D-06
 Number of steps in this run=    376 maximum allowed number of steps=    420.
 GradGradGradGradGradGradGradGradGradGradGradGradGradGradGradGradGradGrad

 Stoichiometry    C24H34AuO9PS
 Framework group  C1[X(C24H34AuO9PS)]
 Deg. of freedom   204
 Full point group                 C1      NOp   1
 Largest Abelian subgroup         C1      NOp   1
 Largest concise Abelian subgroup C1      NOp   1
                         Standard orientation:                         
 ---------------------------------------------------------------------
 Center     Atomic      Atomic             Coordinates (Angstroms)
 Number     Number       Type             X           Y           Z
 ---------------------------------------------------------------------
      1         79           0        2.112202   -1.189576    0.403867
      2         16           0        0.014577   -2.019972    1.009206
      3         15           0        4.189051   -0.391395   -0.160665
      4          8           0       -1.016660    0.350831    0.441844
      5          8           0       -2.707121   -2.772988   -0.321538
      6          8           0       -3.378895   -3.611079    1.658023
      7          8           0       -4.843240   -0.883370   -0.215310
      8          8           0       -5.340991   -1.432125   -2.342566
      9          8           0       -4.005414    1.720858   -1.100197
     10          8           0       -5.298962    2.529663    0.556531
     11          8           0       -1.795979    2.884322    1.358529
     12          8           0       -1.042087    4.984092    1.190213
     13          6           0       -1.107008   -0.999185    0.026649
     14          6           0       -2.555811   -1.464457    0.212329
     15          6           0       -3.500561   -0.546931   -0.554612
     16          6           0       -3.255137    0.911017   -0.199984
     17          6           0       -1.767496    1.231459   -0.365600
     18          6           0       -3.107810   -3.765653    0.492706
     19          6           0       -3.164100   -5.065150   -0.249546
     20          6           0       -5.668789   -1.314703   -1.187491
     21          6           0       -7.026000   -1.616716   -0.631427
     22          6           0       -5.004937    2.481221   -0.611851
     23          6           0       -5.677564    3.238812   -1.714389
     24          6           0       -1.402597    2.649246    0.008394
     25          6           0       -1.562780    4.108633    1.841785
     26          6           0       -2.029278    4.234986    3.259751
     27          1           0       -0.836334   -1.070977   -1.036888
     28          1           0       -2.805451   -1.469508    1.277726
     29          1           0       -3.362995   -0.693843   -1.631203
     30          1           0       -3.572204    1.115367    0.826020
     31          1           0       -1.491732    1.104208   -1.425938
     32          1           0       -3.564790   -5.844140    0.397731
     33          1           0       -2.156800   -5.338238   -0.578410
     34          1           0       -3.784072   -4.959569   -1.143847
     35          1           0       -7.452020   -0.710968   -0.190127
     36          1           0       -6.942891   -2.361437    0.165100
     37          1           0       -7.676078   -1.986027   -1.423433
     38          1           0       -4.946445    3.865984   -2.232304
     39          1           0       -6.476137    3.855813   -1.304829
     40          1           0       -6.085078    2.536712   -2.447525
     41          1           0       -0.321551    2.786461   -0.090370
     42          1           0       -1.905455    3.358844   -0.655600
     43          1           0       -1.792195    5.227769    3.639952
     44          1           0       -1.551259    3.471200    3.879302
     45          1           0       -3.109323    4.067107    3.306867
     46          6           0        4.110549    1.273915   -0.885859
     47          6           0        4.852874    1.649730   -2.009107
     48          6           0        3.275755    2.217356   -0.273485
     49          6           0        4.761830    2.947216   -2.508623
     50          1           0        5.504922    0.939372   -2.506485
     51          6           0        3.194567    3.514163   -0.767830
     52          1           0        2.678211    1.932930    0.589301
     53          6           0        3.936763    3.880947   -1.889039
     54          1           0        5.340557    3.225814   -3.384230
     55          1           0        2.543944    4.235699   -0.282543
     56          1           0        3.867778    4.891440   -2.280700
     57          6           0        5.082735   -1.443536   -1.358152
     58          1           0        4.503282   -1.415491   -2.287333
     59          1           0        6.060863   -0.998169   -1.568349
     60          6           0        5.285463   -0.225538    1.301704
     61          1           0        4.763828    0.463108    1.975695
     62          1           0        5.282228   -1.202168    1.798788
     63          6           0        5.242016   -2.880476   -0.866599
     64          1           0        4.270158   -3.336186   -0.651798
     65          1           0        5.738861   -3.482224   -1.633260
     66          1           0        5.850162   -2.933182    0.041893
     67          6           0        6.705246    0.251279    1.019473
     68          1           0        7.245634    0.380954    1.962386
     69          1           0        7.265344   -0.469553    0.416291
     70          1           0        6.711301    1.212417    0.495880
 ---------------------------------------------------------------------
 Rotational constants (GHZ):      0.1092011      0.0499365      0.0388887
 General basis read from cards:  (5D, 7F)
 ======================================================================================================
                                       Pseudopotential Parameters
 ======================================================================================================
  Center     Atomic      Valence      Angular      Power
  Number     Number     Electrons     Momentum     of R      Exponent        Coefficient   SO-Coeffient
 ======================================================================================================
    1         79           19
                                      G and up 
                                                     1      622.6287956      -60.00000000    0.00000000
                                                     2      136.2843607     -555.52923120    0.00000000
                                                     2       33.1549781     -168.00197850    0.00000000
                                                     2        9.9894895      -63.03998750    0.00000000
                                                     2        3.0481312       -4.25166810    0.00000000
                                      S - G
                                                     0      194.7374304        3.00000000    0.00000000
                                                     1      351.5327447       38.60208800    0.00000000
                                                     2      122.3270402      864.83707270    0.00000000
                                                     2       32.0914617      374.99355200    0.00000000
                                                     2        5.2451812      289.79101000    0.00000000
                                                     2        4.4916223     -152.45327730    0.00000000
                                      P - G
                                                     0      420.6158801        2.00000000    0.00000000
                                                     1      109.4417815       73.88856250    0.00000000
                                                     2       34.1714280      326.67298720    0.00000000
                                                     2        5.9879750      126.58145910    0.00000000
                                      D - G
                                                     0      219.2666158        3.00000000    0.00000000
                                                     1      122.7297786       55.67931490    0.00000000
                                                     2       63.1063369      449.19873350    0.00000000
                                                     2       18.3684520      215.02690910    0.00000000
                                                     2        4.4972844       64.08409950    0.00000000
                                      F - G
                                                     0      108.5506037        4.00000000    0.00000000
                                                     1       56.4795527       51.80653350    0.00000000
                                                     2       29.2069159      231.21831130    0.00000000
                                                     2        9.5440543      119.00473860    0.00000000
                                                     2        2.8965118       15.34241880    0.00000000
    2         16
                                   No pseudopotential on this center.
    3         15
                                   No pseudopotential on this center.
    4          8
                                   No pseudopotential on this center.
    5          8
                                   No pseudopotential on this center.
    6          8
                                   No pseudopotential on this center.
    7          8
                                   No pseudopotential on this center.
    8          8
                                   No pseudopotential on this center.
    9          8
                                   No pseudopotential on this center.
   10          8
                                   No pseudopotential on this center.
   11          8
                                   No pseudopotential on this center.
   12          8
                                   No pseudopotential on this center.
   13          6
                                   No pseudopotential on this center.
   14          6
                                   No pseudopotential on this center.
   15          6
                                   No pseudopotential on this center.
   16          6
                                   No pseudopotential on this center.
   17          6
                                   No pseudopotential on this center.
   18          6
                                   No pseudopotential on this center.
   19          6
                                   No pseudopotential on this center.
   20          6
                                   No pseudopotential on this center.
   21          6
                                   No pseudopotential on this center.
   22          6
                                   No pseudopotential on this center.
   23          6
                                   No pseudopotential on this center.
   24          6
                                   No pseudopotential on this center.
   25          6
                                   No pseudopotential on this center.
   26          6
                                   No pseudopotential on this center.
   27          1
                                   No pseudopotential on this center.
   28          1
                                   No pseudopotential on this center.
   29          1
                                   No pseudopotential on this center.
   30          1
                                   No pseudopotential on this center.
   31          1
                                   No pseudopotential on this center.
   32          1
                                   No pseudopotential on this center.
   33          1
                                   No pseudopotential on this center.
   34          1
                                   No pseudopotential on this center.
   35          1
                                   No pseudopotential on this center.
   36          1
                                   No pseudopotential on this center.
   37          1
                                   No pseudopotential on this center.
   38          1
                                   No pseudopotential on this center.
   39          1
                                   No pseudopotential on this center.
   40          1
                                   No pseudopotential on this center.
   41          1
                                   No pseudopotential on this center.
   42          1
                                   No pseudopotential on this center.
   43          1
                                   No pseudopotential on this center.
   44          1
                                   No pseudopotential on this center.
   45          1
                                   No pseudopotential on this center.
   46          6
                                   No pseudopotential on this center.
   47          6
                                   No pseudopotential on this center.
   48          6
                                   No pseudopotential on this center.
   49          6
                                   No pseudopotential on this center.
   50          1
                                   No pseudopotential on this center.
   51          6
                                   No pseudopotential on this center.
   52          1
                                   No pseudopotential on this center.
   53          6
                                   No pseudopotential on this center.
   54          1
                                   No pseudopotential on this center.
   55          1
                                   No pseudopotential on this center.
   56          1
                                   No pseudopotential on this center.
   57          6
                                   No pseudopotential on this center.
   58          1
                                   No pseudopotential on this center.
   59          1
                                   No pseudopotential on this center.
   60          6
                                   No pseudopotential on this center.
   61          1
                                   No pseudopotential on this center.
   62          1
                                   No pseudopotential on this center.
   63          6
                                   No pseudopotential on this center.
   64          1
                                   No pseudopotential on this center.
   65          1
                                   No pseudopotential on this center.
   66          1
                                   No pseudopotential on this center.
   67          6
                                   No pseudopotential on this center.
   68          1
                                   No pseudopotential on this center.
   69          1
                                   No pseudopotential on this center.
   70          1
                                   No pseudopotential on this center.
 ======================================================================================================
 There are   649 symmetry adapted cartesian basis functions of A   symmetry.
 There are   608 symmetry adapted basis functions of A   symmetry.
   608 basis functions,  1212 primitive gaussians,   649 cartesian basis functions
   150 alpha electrons      150 beta electrons
       nuclear repulsion energy      4869.2325879506 Hartrees.
 NAtoms=   70 NActive=   70 NUniq=   70 SFac= 1.00D+00 NAtFMM=   60 NAOKFM=T Big=T
 Integral buffers will be    131072 words long.
 Raffenetti 2 integral format.
 Two-electron integral symmetry is turned on.
 One-electron integrals computed using PRISM.
   1 Symmetry operations used in ECPInt.
 ECPInt:  NShTT=   25200 NPrTT=  150640 LenC2=   17871 LenP2D=   55111.
 LDataN:  DoStor=T MaxTD1= 7 Len=  274
 NBasis=   608 RedAO= T EigKep=  4.98D-04  NBF=   608
 NBsUse=   608 1.00D-06 EigRej= -1.00D+00 NBFU=   608
 Defaulting to unpruned grid for atomic number  79.
 ExpMin= 2.79D-02 ExpMax= 2.19D+04 ExpMxC= 3.30D+03 IAcc=3 IRadAn=         5 AccDes= 0.00D+00
 Harris functional with IExCor=  402 and IRadAn=       5 diagonalized for initial guess.
 HarFok:  IExCor=  402 AccDes= 0.00D+00 IRadAn=         5 IDoV= 1 UseB2=F ITyADJ=14
 ICtDFT=  3500011 ScaDFX=  1.000000  1.000000  1.000000  1.000000
 Defaulting to unpruned grid for atomic number  79.
 Defaulting to unpruned grid for atomic number  79.
 Defaulting to unpruned grid for atomic number  79.
 Defaulting to unpruned grid for atomic number  79.
 Defaulting to unpruned grid for atomic number  79.
 Defaulting to unpruned grid for atomic number  79.
 Defaulting to unpruned grid for atomic number  79.
 Defaulting to unpruned grid for atomic number  79.
 FoFCou: FMM=F IPFlag=           0 FMFlag=      100000 FMFlg1=        2001
         NFxFlg=           0 DoJE=T BraDBF=F KetDBF=T FulRan=T
         wScrn=  0.000000 ICntrl=     500 IOpCl=  0 I1Cent=   200000004 NGrid=           0
         NMat0=    1 NMatS0=      1 NMatT0=    0 NMatD0=    1 NMtDS0=    0 NMtDT0=    0
 Petite list used in FoFCou.
 Requested convergence on RMS density matrix=1.00D-08 within 128 cycles.
 Requested convergence on MAX density matrix=1.00D-06.
 Requested convergence on             energy=1.00D-06.
 No special actions if energy rises.
 Defaulting to unpruned grid for atomic number  79.
 Defaulting to unpruned grid for atomic number  79.
 Defaulting to unpruned grid for atomic number  79.
 Defaulting to unpruned grid for atomic number  79.
 Defaulting to unpruned grid for atomic number  79.
 Defaulting to unpruned grid for atomic number  79.
 Defaulting to unpruned grid for atomic number  79.
 Defaulting to unpruned grid for atomic number  79.
 SCF Done:  E(RB3LYP) =  -2487.16182633     A.U. after   14 cycles
            NFock= 14  Conv=0.35D-08     -V/T= 2.0435

 **********************************************************************

            Population analysis using the SCF density.

 **********************************************************************

 Orbital symmetries:
       Occupied  (A) (A) (A) (A) (A) (A) (A) (A) (A) (A) (A) (A)
                 (A) (A) (A) (A) (A) (A) (A) (A) (A) (A) (A) (A)
                 (A) (A) (A) (A) (A) (A) (A) (A) (A) (A) (A) (A)
                 (A) (A) (A) (A) (A) (A) (A) (A) (A) (A) (A) (A)
                 (A) (A) (A) (A) (A) (A) (A) (A) (A) (A) (A) (A)
                 (A) (A) (A) (A) (A) (A) (A) (A) (A) (A) (A) (A)
                 (A) (A) (A) (A) (A) (A) (A) (A) (A) (A) (A) (A)
                 (A) (A) (A) (A) (A) (A) (A) (A) (A) (A) (A) (A)
                 (A) (A) (A) (A) (A) (A) (A) (A) (A) (A) (A) (A)
                 (A) (A) (A) (A) (A) (A) (A) (A) (A) (A) (A) (A)
                 (A) (A) (A) (A) (A) (A) (A) (A) (A) (A) (A) (A)
                 (A) (A) (A) (A) (A) (A) (A) (A) (A) (A) (A) (A)
                 (A) (A) (A) (A) (A) (A)
       Virtual   (A) (A) (A) (A) (A) (A) (A) (A) (A) (A) (A) (A)
                 (A) (A) (A) (A) (A) (A) (A) (A) (A) (A) (A) (A)
                 (A) (A) (A) (A) (A) (A) (A) (A) (A) (A) (A) (A)
                 (A) (A) (A) (A) (A) (A) (A) (A) (A) (A) (A) (A)
                 (A) (A) (A) (A) (A) (A) (A) (A) (A) (A) (A) (A)
                 (A) (A) (A) (A) (A) (A) (A) (A) (A) (A) (A) (A)
                 (A) (A) (A) (A) (A) (A) (A) (A) (A) (A) (A) (A)
                 (A) (A) (A) (A) (A) (A) (A) (A) (A) (A) (A) (A)
                 (A) (A) (A) (A) (A) (A) (A) (A) (A) (A) (A) (A)
                 (A) (A) (A) (A) (A) (A) (A) (A) (A) (A) (A) (A)
                 (A) (A) (A) (A) (A) (A) (A) (A) (A) (A) (A) (A)
                 (A) (A) (A) (A) (A) (A) (A) (A) (A) (A) (A) (A)
                 (A) (A) (A) (A) (A) (A) (A) (A) (A) (A) (A) (A)
                 (A) (A) (A) (A) (A) (A) (A) (A) (A) (A) (A) (A)
                 (A) (A) (A) (A) (A) (A) (A) (A) (A) (A) (A) (A)
                 (A) (A) (A) (A) (A) (A) (A) (A) (A) (A) (A) (A)
                 (A) (A) (A) (A) (A) (A) (A) (A) (A) (A) (A) (A)
                 (A) (A) (A) (A) (A) (A) (A) (A) (A) (A) (A) (A)
                 (A) (A) (A) (A) (A) (A) (A) (A) (A) (A) (A) (A)
                 (A) (A) (A) (A) (A) (A) (A) (A) (A) (A) (A) (A)
                 (A) (A) (A) (A) (A) (A) (A) (A) (A) (A) (A) (A)
                 (A) (A) (A) (A) (A) (A) (A) (A) (A) (A) (A) (A)
                 (A) (A) (A) (A) (A) (A) (A) (A) (A) (A) (A) (A)
                 (A) (A) (A) (A) (A) (A) (A) (A) (A) (A) (A) (A)
                 (A) (A) (A) (A) (A) (A) (A) (A) (A) (A) (A) (A)
                 (A) (A) (A) (A) (A) (A) (A) (A) (A) (A) (A) (A)
                 (A) (A) (A) (A) (A) (A) (A) (A) (A) (A) (A) (A)
                 (A) (A) (A) (A) (A) (A) (A) (A) (A) (A) (A) (A)
                 (A) (A) (A) (A) (A) (A) (A) (A) (A) (A) (A) (A)
                 (A) (A) (A) (A) (A) (A) (A) (A) (A) (A) (A) (A)
                 (A) (A) (A) (A) (A) (A) (A) (A) (A) (A) (A) (A)
                 (A) (A) (A) (A) (A) (A) (A) (A) (A) (A) (A) (A)
                 (A) (A) (A) (A) (A) (A) (A) (A) (A) (A) (A) (A)
                 (A) (A) (A) (A) (A) (A) (A) (A) (A) (A) (A) (A)
                 (A) (A) (A) (A) (A) (A) (A) (A) (A) (A) (A) (A)
                 (A) (A) (A) (A) (A) (A) (A) (A) (A) (A) (A) (A)
                 (A) (A) (A) (A) (A) (A) (A) (A) (A) (A) (A) (A)
                 (A) (A) (A) (A) (A) (A) (A) (A) (A) (A) (A) (A)
                 (A) (A)
 The electronic state is 1-A.
 Alpha  occ. eigenvalues --  -88.80657 -77.12193 -19.18830 -19.18241 -19.18183
 Alpha  occ. eigenvalues --  -19.17417 -19.15118 -19.13041 -19.12509 -19.12405
 Alpha  occ. eigenvalues --  -19.11452 -10.31331 -10.30787 -10.30584 -10.29816
 Alpha  occ. eigenvalues --  -10.24590 -10.24248 -10.23918 -10.23860 -10.23697
 Alpha  occ. eigenvalues --  -10.23283 -10.21804 -10.21524 -10.21390 -10.21274
 Alpha  occ. eigenvalues --  -10.20980 -10.20805 -10.20756 -10.20540 -10.19820
 Alpha  occ. eigenvalues --  -10.19701 -10.18728 -10.18093 -10.17890 -10.17327
 Alpha  occ. eigenvalues --   -7.88347  -6.60249  -5.84760  -5.84286  -5.83874
 Alpha  occ. eigenvalues --   -4.76409  -4.76376  -4.76147  -4.16227  -2.30869
 Alpha  occ. eigenvalues --   -2.28792  -2.28657  -1.11210  -1.10480  -1.10158
 Alpha  occ. eigenvalues --   -1.09181  -1.05109  -1.01872  -1.01194  -1.00884
 Alpha  occ. eigenvalues --   -1.00189  -0.88086  -0.82437  -0.82145  -0.80965
 Alpha  occ. eigenvalues --   -0.78541  -0.77246  -0.76967  -0.76776  -0.75762
 Alpha  occ. eigenvalues --   -0.74539  -0.73514  -0.71395  -0.69249  -0.68590
 Alpha  occ. eigenvalues --   -0.65521  -0.64932  -0.63065  -0.62342  -0.62012
 Alpha  occ. eigenvalues --   -0.59601  -0.59301  -0.57522  -0.57231  -0.55392
 Alpha  occ. eigenvalues --   -0.54474  -0.53483  -0.52096  -0.50321  -0.49645
 Alpha  occ. eigenvalues --   -0.49462  -0.48734  -0.48532  -0.48425  -0.48064
 Alpha  occ. eigenvalues --   -0.47721  -0.47588  -0.47130  -0.47096  -0.46914
 Alpha  occ. eigenvalues --   -0.46263  -0.45770  -0.45333  -0.45122  -0.45021
 Alpha  occ. eigenvalues --   -0.44654  -0.44412  -0.43532  -0.43376  -0.42950
 Alpha  occ. eigenvalues --   -0.42500  -0.41916  -0.41079  -0.40606  -0.40500
 Alpha  occ. eigenvalues --   -0.40234  -0.40087  -0.39817  -0.39424  -0.39237
 Alpha  occ. eigenvalues --   -0.38965  -0.38527  -0.38519  -0.38196  -0.37952
 Alpha  occ. eigenvalues --   -0.37510  -0.36911  -0.36378  -0.36178  -0.35993
 Alpha  occ. eigenvalues --   -0.35496  -0.35398  -0.35047  -0.34130  -0.33781
 Alpha  occ. eigenvalues --   -0.32884  -0.32686  -0.32105  -0.31431  -0.30442
 Alpha  occ. eigenvalues --   -0.30153  -0.29738  -0.29700  -0.29637  -0.28484
 Alpha  occ. eigenvalues --   -0.27555  -0.27463  -0.27146  -0.26828  -0.26502
 Alpha  occ. eigenvalues --   -0.26163  -0.25824  -0.25535  -0.23516  -0.19621
 Alpha virt. eigenvalues --   -0.04302  -0.02795  -0.01281  -0.00870   0.01360
 Alpha virt. eigenvalues --    0.01905   0.02057   0.02359   0.02941   0.03944
 Alpha virt. eigenvalues --    0.05553   0.05655   0.07293   0.07840   0.09049
 Alpha virt. eigenvalues --    0.09227   0.09453   0.10306   0.10525   0.10937
 Alpha virt. eigenvalues --    0.11317   0.11718   0.11872   0.12181   0.12727
 Alpha virt. eigenvalues --    0.13232   0.13317   0.13817   0.14121   0.14446
 Alpha virt. eigenvalues --    0.14699   0.14826   0.15235   0.15377   0.15491
 Alpha virt. eigenvalues --    0.15758   0.15874   0.16138   0.16635   0.17094
 Alpha virt. eigenvalues --    0.17273   0.17471   0.17739   0.18044   0.18191
 Alpha virt. eigenvalues --    0.18325   0.18483   0.18635   0.19079   0.19354
 Alpha virt. eigenvalues --    0.19473   0.20005   0.20479   0.20730   0.21254
 Alpha virt. eigenvalues --    0.22144   0.22441   0.23130   0.23357   0.23650
 Alpha virt. eigenvalues --    0.23853   0.24044   0.24263   0.26647   0.26887
 Alpha virt. eigenvalues --    0.27710   0.28262   0.28471   0.28943   0.29034
 Alpha virt. eigenvalues --    0.29643   0.30228   0.30634   0.31410   0.31496
 Alpha virt. eigenvalues --    0.31762   0.31953   0.32930   0.36052   0.36379
 Alpha virt. eigenvalues --    0.36866   0.37203   0.37693   0.38564   0.39074
 Alpha virt. eigenvalues --    0.40513   0.41475   0.42205   0.43430   0.44201
 Alpha virt. eigenvalues --    0.46010   0.46367   0.47754   0.48191   0.49798
 Alpha virt. eigenvalues --    0.50175   0.51698   0.52061   0.52308   0.52720
 Alpha virt. eigenvalues --    0.52851   0.53627   0.53925   0.54323   0.54572
 Alpha virt. eigenvalues --    0.55079   0.55363   0.55901   0.56190   0.56493
 Alpha virt. eigenvalues --    0.57025   0.57184   0.57612   0.57825   0.57871
 Alpha virt. eigenvalues --    0.58263   0.58653   0.59339   0.59508   0.59574
 Alpha virt. eigenvalues --    0.59711   0.59993   0.60437   0.60634   0.60733
 Alpha virt. eigenvalues --    0.61061   0.61509   0.61999   0.62355   0.62950
 Alpha virt. eigenvalues --    0.63292   0.64280   0.65098   0.65593   0.66225
 Alpha virt. eigenvalues --    0.66443   0.67733   0.67971   0.68205   0.68643
 Alpha virt. eigenvalues --    0.69134   0.69555   0.69691   0.70564   0.71143
 Alpha virt. eigenvalues --    0.71717   0.72917   0.74103   0.74651   0.75556
 Alpha virt. eigenvalues --    0.75950   0.77535   0.78201   0.78845   0.79433
 Alpha virt. eigenvalues --    0.79815   0.79922   0.80250   0.80773   0.81625
 Alpha virt. eigenvalues --    0.82070   0.82392   0.82461   0.83172   0.83314
 Alpha virt. eigenvalues --    0.83633   0.83978   0.84247   0.84919   0.85393
 Alpha virt. eigenvalues --    0.85592   0.85896   0.86119   0.86426   0.86940
 Alpha virt. eigenvalues --    0.87383   0.87515   0.87960   0.88218   0.88438
 Alpha virt. eigenvalues --    0.88517   0.88951   0.89611   0.90101   0.90395
 Alpha virt. eigenvalues --    0.90767   0.91079   0.91279   0.91363   0.91881
 Alpha virt. eigenvalues --    0.92394   0.93003   0.93169   0.93433   0.93816
 Alpha virt. eigenvalues --    0.94052   0.94239   0.95042   0.95092   0.95468
 Alpha virt. eigenvalues --    0.95971   0.96377   0.96616   0.96838   0.97515
 Alpha virt. eigenvalues --    0.97829   0.98419   0.98867   0.99338   1.00259
 Alpha virt. eigenvalues --    1.00519   1.01001   1.01245   1.01500   1.01808
 Alpha virt. eigenvalues --    1.02573   1.03386   1.04251   1.04796   1.05217
 Alpha virt. eigenvalues --    1.05655   1.07427   1.08034   1.09325   1.11027
 Alpha virt. eigenvalues --    1.11330   1.11697   1.12515   1.12881   1.14058
 Alpha virt. eigenvalues --    1.14342   1.14652   1.14909   1.15929   1.16141
 Alpha virt. eigenvalues --    1.16658   1.18614   1.18967   1.19952   1.21939
 Alpha virt. eigenvalues --    1.22829   1.23735   1.25082   1.26635   1.27407
 Alpha virt. eigenvalues --    1.28824   1.29539   1.30079   1.32473   1.34562
 Alpha virt. eigenvalues --    1.35237   1.36018   1.38157   1.38676   1.40123
 Alpha virt. eigenvalues --    1.40598   1.41341   1.42852   1.42955   1.43342
 Alpha virt. eigenvalues --    1.44335   1.45844   1.46688   1.46845   1.47676
 Alpha virt. eigenvalues --    1.48294   1.48998   1.49336   1.51059   1.51295
 Alpha virt. eigenvalues --    1.52074   1.53750   1.53865   1.54441   1.55917
 Alpha virt. eigenvalues --    1.57752   1.57947   1.58884   1.60752   1.62161
 Alpha virt. eigenvalues --    1.63650   1.64007   1.64613   1.65215   1.66200
 Alpha virt. eigenvalues --    1.66726   1.67787   1.68437   1.69622   1.69886
 Alpha virt. eigenvalues --    1.71970   1.73692   1.73958   1.75418   1.76978
 Alpha virt. eigenvalues --    1.77088   1.78415   1.78650   1.79707   1.80006
 Alpha virt. eigenvalues --    1.80201   1.80804   1.80913   1.81208   1.81735
 Alpha virt. eigenvalues --    1.82342   1.82783   1.83365   1.83502   1.84023
 Alpha virt. eigenvalues --    1.85061   1.85168   1.85865   1.87507   1.87708
 Alpha virt. eigenvalues --    1.88119   1.88712   1.89620   1.90616   1.91085
 Alpha virt. eigenvalues --    1.91734   1.93750   1.94224   1.94762   1.95152
 Alpha virt. eigenvalues --    1.95838   1.95884   1.96557   1.96728   1.97059
 Alpha virt. eigenvalues --    1.97448   1.97828   1.98171   1.98732   1.99493
 Alpha virt. eigenvalues --    1.99889   2.00247   2.00458   2.00879   2.01221
 Alpha virt. eigenvalues --    2.01272   2.01525   2.01829   2.02138   2.02616
 Alpha virt. eigenvalues --    2.03292   2.03747   2.04591   2.04824   2.05462
 Alpha virt. eigenvalues --    2.05645   2.07109   2.07916   2.08950   2.09327
 Alpha virt. eigenvalues --    2.09496   2.10660   2.11081   2.12104   2.12553
 Alpha virt. eigenvalues --    2.12702   2.13230   2.13762   2.13934   2.14421
 Alpha virt. eigenvalues --    2.14956   2.15065   2.15568   2.17234   2.18335
 Alpha virt. eigenvalues --    2.18936   2.19943   2.19981   2.21053   2.21610
 Alpha virt. eigenvalues --    2.21729   2.22545   2.23516   2.23636   2.23804
 Alpha virt. eigenvalues --    2.25186   2.25564   2.25923   2.26302   2.27290
 Alpha virt. eigenvalues --    2.27536   2.28389   2.29319   2.30236   2.30699
 Alpha virt. eigenvalues --    2.31260   2.32011   2.32605   2.32955   2.33311
 Alpha virt. eigenvalues --    2.34532   2.37603   2.40233   2.40760   2.41590
 Alpha virt. eigenvalues --    2.42337   2.44754   2.45721   2.45912   2.46860
 Alpha virt. eigenvalues --    2.47163   2.47503   2.52912   2.53665   2.56117
 Alpha virt. eigenvalues --    2.56500   2.57956   2.59930   2.61160   2.62135
 Alpha virt. eigenvalues --    2.63017   2.63801   2.65307   2.66702   2.67500
 Alpha virt. eigenvalues --    2.68049   2.69022   2.69750   2.69845   2.70518
 Alpha virt. eigenvalues --    2.71650   2.72935   2.73764   2.75392   2.76703
 Alpha virt. eigenvalues --    2.77632   2.79472   2.80186   2.81959   2.83439
 Alpha virt. eigenvalues --    2.86490   2.88028   2.88793   2.96327   2.97677
 Alpha virt. eigenvalues --    2.98775   2.99690   3.00334   3.01215   3.01618
 Alpha virt. eigenvalues --    3.06985   3.08080   3.12346   3.13126   3.18135
 Alpha virt. eigenvalues --    3.18525   3.21120   3.22061   3.37484  15.59611
 Alpha virt. eigenvalues --   15.61192  15.70368  43.17847
          Condensed to atoms (all electrons):
 Mulliken charges:
               1
     1  Au  -0.114778
     2  S   -0.135827
     3  P    0.389205
     4  O   -0.454754
     5  O   -0.454668
     6  O   -0.424820
     7  O   -0.453627
     8  O   -0.427966
     9  O   -0.466519
    10  O   -0.421139
    11  O   -0.428959
    12  O   -0.446561
    13  C   -0.027390
    14  C    0.098642
    15  C    0.079071
    16  C    0.098049
    17  C    0.098288
    18  C    0.585170
    19  C   -0.537621
    20  C    0.561702
    21  C   -0.534846
    22  C    0.564042
    23  C   -0.533644
    24  C   -0.047084
    25  C    0.570552
    26  C   -0.533536
    27  H    0.162498
    28  H    0.203428
    29  H    0.180015
    30  H    0.202935
    31  H    0.130721
    32  H    0.178559
    33  H    0.192553
    34  H    0.180107
    35  H    0.187787
    36  H    0.191521
    37  H    0.179169
    38  H    0.181895
    39  H    0.183820
    40  H    0.189978
    41  H    0.167991
    42  H    0.160787
    43  H    0.177883
    44  H    0.187243
    45  H    0.195307
    46  C   -0.054815
    47  C   -0.166774
    48  C   -0.168528
    49  C   -0.117858
    50  H    0.136874
    51  C   -0.128102
    52  H    0.181546
    53  C   -0.126371
    54  H    0.140559
    55  H    0.161268
    56  H    0.145617
    57  C   -0.459829
    58  H    0.196728
    59  H    0.174758
    60  C   -0.439521
    61  H    0.199658
    62  H    0.195445
    63  C   -0.475915
    64  H    0.212134
    65  H    0.164628
    66  H    0.159643
    67  C   -0.457762
    68  H    0.165524
    69  H    0.155177
    70  H    0.170734
 Sum of Mulliken charges =   0.00000
 Mulliken charges with hydrogens summed into heavy atoms:
               1
     1  Au  -0.114778
     2  S   -0.135827
     3  P    0.389205
     4  O   -0.454754
     5  O   -0.454668
     6  O   -0.424820
     7  O   -0.453627
     8  O   -0.427966
     9  O   -0.466519
    10  O   -0.421139
    11  O   -0.428959
    12  O   -0.446561
    13  C    0.135108
    14  C    0.302069
    15  C    0.259086
    16  C    0.300984
    17  C    0.229009
    18  C    0.585170
    19  C    0.013599
    20  C    0.561702
    21  C    0.023631
    22  C    0.564042
    23  C    0.022050
    24  C    0.281694
    25  C    0.570552
    26  C    0.026896
    46  C   -0.054815
    47  C   -0.029900
    48  C    0.013018
    49  C    0.022701
    51  C    0.033166
    53  C    0.019246
    57  C   -0.088343
    60  C   -0.044418
    63  C    0.060491
    67  C    0.033673
 Electronic spatial extent (au):  <R**2>=          25687.2454
 Charge=              0.0000 electrons
 Dipole moment (field-independent basis, Debye):
    X=              8.0918    Y=              2.2455    Z=             -4.1127  Tot=              9.3506
 Quadrupole moment (field-independent basis, Debye-Ang):
   XX=           -192.4219   YY=           -244.8867   ZZ=           -244.4736
   XY=             -3.7795   XZ=             -0.2085   YZ=              1.9039
 Traceless Quadrupole moment (field-independent basis, Debye-Ang):
   XX=             34.8389   YY=            -17.6260   ZZ=            -17.2128
   XY=             -3.7795   XZ=             -0.2085   YZ=              1.9039
 Octapole moment (field-independent basis, Debye-Ang**2):
  XXX=            295.3029  YYY=           -209.2448  ZZZ=             75.3031  XYY=             56.4639
  XXY=            -59.5032  XXZ=            -44.8564  XZZ=            125.5352  YZZ=             28.1435
  YYZ=            -40.7201  XYZ=             -1.5182
 Hexadecapole moment (field-independent basis, Debye-Ang**3):
 XXXX=         -20098.4391 YYYY=          -9269.4430 ZZZZ=          -2449.6519 XXXY=           -405.0261
 XXXZ=            214.4759 YYYX=           -148.4034 YYYZ=            -44.3654 ZZZX=            -43.0235
 ZZZY=             53.2461 XXYY=          -4907.3136 XXZZ=          -4108.5262 YYZZ=          -1848.6652
 XXYZ=           -207.3624 YYXZ=             67.4949 ZZXY=           -253.4253
 N-N= 4.869232587951D+03 E-N=-1.554364695944D+04  KE= 2.383515654061D+03
   1 Symmetry operations used in ECPInt.
 ECPInt:  NShTT=   25200 NPrTT=  150640 LenC2=   17871 LenP2D=   55111.
 LDataN:  DoStor=T MaxTD1= 8 Len=  415
 Calling FoFJK, ICntrl=      2127 FMM=T ISym2X=0 I1Cent= 0 IOpClX= 0 NMat=1 NMatS=1 NMatT=0.
 Defaulting to unpruned grid for atomic number  79.
 Defaulting to unpruned grid for atomic number  79.
 Defaulting to unpruned grid for atomic number  79.
 Defaulting to unpruned grid for atomic number  79.
 Defaulting to unpruned grid for atomic number  79.
 Defaulting to unpruned grid for atomic number  79.
 Defaulting to unpruned grid for atomic number  79.
 Defaulting to unpruned grid for atomic number  79.
 ***** Axes restored to original set *****
 -------------------------------------------------------------------
 Center     Atomic                   Forces (Hartrees/Bohr)
 Number     Number              X              Y              Z
 -------------------------------------------------------------------
      1       79          -0.004663086   -0.001386207    0.000718416
      2       16           0.006435309   -0.005774869    0.005165554
      3       15          -0.010456613   -0.000524414    0.001364158
      4        8           0.004786965    0.005697573    0.004317639
      5        8           0.003151910    0.002332177   -0.013616230
      6        8          -0.002925198   -0.000938698    0.007033012
      7        8          -0.001379201    0.002377102    0.011564591
      8        8           0.000339198   -0.001437958   -0.010020782
      9        8           0.004501363   -0.000167105   -0.012703861
     10        8          -0.003830589    0.002234680    0.008317102
     11        8          -0.004676755   -0.011729238    0.001563336
     12        8           0.004832682    0.007789275   -0.004659612
     13        6           0.000266454   -0.003724795   -0.005278185
     14        6          -0.000447827    0.001760415    0.006270126
     15        6           0.004043508   -0.000093638   -0.004924327
     16        6           0.000626778   -0.002512735    0.007393666
     17        6          -0.000907146    0.001966571   -0.002520290
     18        6          -0.002191735   -0.002553700    0.008499931
     19        6           0.000388193   -0.004189878   -0.003748132
     20        6           0.000114489   -0.001281600   -0.004562833
     21        6          -0.004552633   -0.000816835    0.002807372
     22        6          -0.003027827    0.001300281    0.005185400
     23        6          -0.002058934    0.002105143   -0.004503605
     24        6           0.002719103    0.002136427   -0.003739096
     25        6           0.001225676    0.005870015    0.001308762
     26        6          -0.002152649   -0.000523981    0.004808884
     27        1          -0.000846256    0.000258300   -0.000783362
     28        1           0.000147421   -0.000476196   -0.000839424
     29        1          -0.000825758   -0.000145980    0.000643964
     30        1           0.000576593    0.000235741   -0.001170713
     31        1          -0.000247546   -0.000357264   -0.001528137
     32        1          -0.000258857   -0.000383891    0.000702272
     33        1           0.000569807   -0.000738575   -0.000525586
     34        1          -0.000381751   -0.000558153   -0.001237590
     35        1          -0.000938267    0.000261043    0.001039284
     36        1          -0.000671319   -0.000322767    0.001063046
     37        1          -0.000364321   -0.000277105   -0.000762837
     38        1          -0.000078073    0.000887056   -0.001212432
     39        1          -0.000460183    0.000514566    0.000385303
     40        1          -0.000422684    0.000033629   -0.001306932
     41        1          -0.000036855    0.000624675   -0.000230259
     42        1           0.000597867    0.000511093    0.000023353
     43        1           0.000303830    0.000811187    0.000002060
     44        1          -0.000150967   -0.000650466    0.001117650
     45        1          -0.000918264   -0.000399245    0.000682718
     46        6           0.001379353    0.000262615   -0.000588908
     47        6           0.002237509   -0.000347895   -0.002341236
     48        6          -0.002628435    0.000418112    0.003010251
     49        6           0.001892513    0.000907179   -0.002900586
     50        1           0.000052945   -0.000143727   -0.000124962
     51        6          -0.002164955    0.002934761    0.001521085
     52        1          -0.000150174   -0.000140895   -0.000171115
     53        6          -0.000182823    0.002851431   -0.001235480
     54        1           0.000185920    0.000249914   -0.000468526
     55        1          -0.000437700    0.000237874    0.000181020
     56        1          -0.000057764    0.000352972   -0.000117604
     57        6           0.003880390    0.000426411   -0.004603346
     58        1           0.000109997   -0.000542393   -0.000597959
     59        1           0.001098379   -0.000642044   -0.001239134
     60        6           0.001407750   -0.000740585    0.004339348
     61        1           0.000381191   -0.000051881    0.000766587
     62        1           0.000373568   -0.000026078    0.001159384
     63        6           0.000472451   -0.003633409   -0.000228869
     64        1           0.000057152   -0.000264891    0.000051188
     65        1           0.000415857   -0.001082677   -0.000162564
     66        1           0.000320255   -0.000449627    0.000555529
     67        6           0.003530475    0.001551283    0.001300147
     68        1           0.001257427    0.000289241    0.000241404
     69        1           0.000659300   -0.000397845   -0.000343101
     70        1           0.000153563    0.000240495   -0.000105924
[...]
 00988043,-0.05036174,0.01814611,-0.00805375,0.04988875,0.00011182,0.00
 004250,0.00010542,-0.00002778,-0.00000152,-0.00002126,0.00167995,0.000
 13107,0.00105999,-0.00003250,0.00001973,-0.00000668,-0.00003458,-0.000
 03278,0.00001164,-0.00001675,-0.00000920,0.00001790,-0.00004390,-0.000
 01333,-0.00000416,-0.00001237,-0.00000791,-0.00000757,-0.00003147,0.00
 002410,0.00000054,-0.00001143,0.00000957,0.00000781,-0.00001146,0.0000
 1335,0.00001895,-0.00003071,0.00000845,0.00002193,0.00001909,-0.000036
 23,0.00001996,0.00000988,0.00002808,-0.00000652,0.00001606,-0.00000585
 ,-0.00000229,0.00001565,-0.00001105,0.00000601,0.00001946,-0.00001005,
 0.00001148,0.00003610,0.00003770,-0.00003075,0.,-0.00000430,-0.0000011
 7,0.00003368,0.00002208,0.00001306,-0.00000341,-0.00000245,0.00000255,
 0.00002717,-0.00002816,-0.00001129,-0.00000184,0.00000228,-0.00000228,
 0.00001775,-0.00000530,-0.00001233,0.00002216,-0.00001065,-0.00003884,
 -0.00000324,-0.00000262,0.00000758,-0.00000378,0.00000554,-0.00000207,
 0.00000382,-0.00000044,-0.00000266,0.,0.00000195,0.00000128,0.00000104
 ,-0.00000055,-0.00000198,-0.00000076,0.00000113,-0.00000090,-0.0000013
 3,-0.00000170,0.00000079,0.00000058,0.00000221,0.00000051,0.00000029,0
 .00000026,-0.00000002,0.00000037,0.00000058,-0.00000047,0.00000089,-0.
 00000008,-0.00000064,-0.00000160,-0.00000037,-0.00000033,0.00000055,-0
 .00000023,0.00000075,-0.00000078,0.00000125,0.00000002,0.00000011,-0.0
 0000044,-0.00000009,-0.00000126,-0.00000030,0.00000264,-0.00000253,0.0
 0000329,0.00000074,0.00000086,0.00000149,-0.00000022,0.00000099,-0.000
 00040,-0.00000073,-0.00000047,0.00000030,0.00000027,-0.00003540,0.0000
 3962,0.00006147,0.00007985,-0.00004461,-0.00018185,0.00002402,-0.00000
 229,-0.00001114,-0.00007542,-0.00008224,0.00001864,-0.00007239,-0.0000
 0005,0.00015384,-0.00001922,0.00003508,-0.00001293,-0.00000271,-0.0000
 0055,0.00000974,-0.00002095,0.00000511,0.00003108,0.00000524,-0.000001
 12,-0.00001076,0.00000618,0.00000284,-0.00000184,-0.00001045,0.0000169
 6,0.00000227,0.00014727,0.00012136,0.00000946,-0.00016511,-0.00005073,
 0.00000750,-0.00018912,-0.00003338,0.00031497,0.00147613,-0.00045895,0
 .00362108,-0.00036633,-0.00004598,0.00078253,-0.00031696,-0.00043872,0
 .00029443,-0.00008942,0.00003404,0.00000896,-0.00000756,-0.00005443,-0
 .00000361,0.00000641,-0.00000663,-0.00001625,0.00000557,0.00006494,-0.
 00002542,-0.10345958,0.01832510,-0.26317176,0.11278928,-0.02037135,0.2
 8300024,0.00004415,-0.00019585,-0.00028059,-0.00001237,0.00003624,0.00
 003698,-0.00008796,0.00091230,0.00246652,-0.00000897,0.00000033,-0.000
 01023,-0.00000639,-0.00001250,-0.00000282,-0.00000267,-0.00000653,-0.0
 0000469,-0.00001098,-0.00000562,-0.00000429,-0.00000151,-0.00000444,-0
 .00000698,-0.00000595,0.00000279,-0.00000434,-0.00000367,0.00000025,-0
 .00000519,-0.00000338,-0.00000447,-0.00001442,-0.00000103,0.00000066,-
 0.00000903,0.00001429,-0.00000871,0.00000519,0.00000357,0.00000845,0.0
 0000468,0.00000450,-0.00000025,0.00000036,0.00000372,-0.00000131,0.000
 00242,0.00000562,-0.00000539,0.00001127,0.00000510,0.00001485,0.000003
 90,-0.00000111,-0.00000223,-0.00000117,0.00000793,0.00000894,0.0000099
 6,-0.00000043,-0.00000037,-0.00000017,0.00000525,-0.00000269,0.0000064
 9,-0.00000085,0.00000053,-0.00000110,0.00000047,0.00000442,0.00001280,
 0.00000393,0.00000194,0.00001388,-0.00000036,-0.00000267,-0.00000045,-
 0.00000253,0.00000545,-0.00000744,0.00000240,0.00000017,-0.00000131,-0
 .00000076,0.00000060,0.00000009,0.00000175,-0.00000006,-0.00000018,-0.
 00000135,-0.00000106,-0.00000357,0.00000016,-0.00000047,0.00000001,0.0
 0000041,-0.00000008,0.00000091,-0.00000074,0.00000008,0.00000018,0.000
 00041,-0.00000024,0.00000013,0.00000025,0.00000041,0.00000014,-0.00000
 055,-0.00000016,-0.00000013,0.00000021,0.00000044,0.00000012,0.,0.0000
 0020,-0.00000005,-0.00000036,-0.00000011,0.00000012,0.,-0.00000098,0.0
 0000166,-0.00000126,0.00000114,-0.00000156,0.00000092,-0.00000068,-0.0
 0000040,0.00000316,0.00000065,-0.00000226,-0.00000093,0.00000028,-0.00
 000063,-0.00002575,-0.00005914,-0.00034944,-0.00023596,0.00008016,0.00
 010549,0.00001944,-0.00007311,-0.00002574,0.00007701,0.00002126,-0.000
 02898,0.00006266,0.00006735,-0.00013484,0.00004486,-0.00001837,0.00000
 421,0.00002939,-0.00000823,0.00001059,0.00000523,-0.00001325,-0.000004
 77,0.00000140,0.00000860,0.00000276,0.00000189,-0.00000347,0.00000509,
 0.00000898,-0.00000564,-0.00000525,-0.00036686,-0.00013238,0.00008154,
 0.00040113,0.00009802,-0.00004399,0.00023445,0.00008892,-0.00110795,-0
 .01784039,0.01649876,0.01973168,-0.00545802,-0.00305576,-0.00027933,0.
 00126327,-0.00013982,-0.00021719,0.00012151,-0.00001479,-0.00035109,0.
 00005765,0.00010147,0.00013350,0.00003405,-0.00003176,0.00007216,-0.00
 009885,-0.00037482,0.00016669,-0.12827419,0.07464343,0.09473161,0.0089
 3106,-0.00841943,-0.00896809,0.14126598,0.00004814,-0.00002215,0.00010
 940,-0.00001513,0.00000866,-0.00002309,0.00037938,0.00012494,-0.000403
 87,0.00000101,0.00000851,0.00000231,-0.00000115,0.00000081,0.00000148,
 -0.00000040,0.00000061,0.00000267,0.00000173,0.00000259,0.00000138,0.0
 0000030,0.00000122,0.00000248,0.00000015,0.00000180,0.00000231,0.00000
 207,0.00000143,0.00000466,0.00000515,0.00001681,0.00001197,0.00001218,
 0.00000798,0.00000227,-0.00000281,-0.00001584,-0.00000001,-0.00000056,
 0.00000131,-0.00000161,-0.00000074,-0.00000209,0.00000015,-0.00000070,
 0.00000012,-0.00000085,0.00000043,-0.00000401,-0.00000235,0.00000147,0
 .00000008,-0.00000342,0.,0.00000026,0.00000039,-0.00000183,-0.00000237
 ,-0.00000335,0.00000003,-0.00000008,0.00000014,-0.00000149,-0.00000151
 ,-0.00000633,0.00000036,-0.00000011,0.00000077,-0.00000188,-0.00000472
 ,-0.00000964,-0.00001344,-0.00002187,-0.00000648,0.00000104,0.00000067
 ,0.00000081,0.00000071,0.00000017,0.00000130,-0.00000029,-0.00000017,0
 .00000011,0.00000020,0.00000013,-0.00000008,-0.00000090,-0.00000051,0.
 ,0.00000010,0.00000144,0.00000088,-0.00000025,-0.00000004,-0.00000007,
 -0.00000009,0.00000022,-0.00000046,0.00000028,-0.00000014,0.00000004,-
 0.00000019,0.00000008,-0.00000011,-0.00000010,-0.00000015,-0.00000007,
 0.00000013,0.00000010,0.00000007,-0.00000019,-0.00000031,-0.00000016,-
 0.00000019,-0.00000004,-0.00000008,0.00000025,0.00000015,-0.00000005,-
 0.00000093,-0.00000044,-0.00000006,0.00000038,0.00000007,0.00000138,-0
 .00000167,0.00000196,0.00000011,-0.00000209,-0.00000171,0.00000035,0.0
 0000095,0.00000012,0.00000033,0.00001025,-0.00007201,0.00013853,0.0003
 6856,-0.00013415,-0.00014038,-0.00008938,0.00008876,0.00008094,-0.0001
 0126,0.00012141,0.00003068,-0.00004275,-0.00001587,0.00016234,-0.00005
 287,-0.00003746,0.00002897,-0.00000635,0.00000317,0.00000464,0.0000527
 8,0.00003171,-0.00002770,0.00000018,-0.00001943,-0.00000534,-0.0000080
 0,-0.00000045,-0.00000477,-0.00000941,0.00000879,0.00000425,0.00026071
 ,0.00028776,-0.00045745,-0.00012837,-0.00011944,0.00004707,-0.00039566
 ,-0.00011930,0.00009710,-0.00728195,0.00772143,0.01035746,-0.00327833,
 -0.00022845,0.00013367,0.00066736,0.00073116,0.00034610,-0.00022689,0.
 00016600,-0.00025477,0.00004622,-0.00006560,0.00012030,0.00002679,-0.0
 0000948,0.00003094,-0.00001521,-0.00023082,0.00015859,0.07533940,-0.12
 128396,-0.08944434,-0.00250608,0.00118420,0.00239813,-0.08020961,0.126
 62431,-0.00001918,-0.00007027,0.00010426,0.00007817,0.00004560,-0.0000
 2816,-0.00043762,0.00034846,-0.00001206,0.00003165,-0.00002142,0.00001
 203,0.00003440,0.00003296,-0.00000690,0.00001544,0.00001231,-0.0000110
 7,0.00004153,0.00001349,0.00000649,0.00001064,0.00000929,0.00001122,0.
 00002746,-0.00002052,0.00000310,0.00001077,-0.00000722,-0.00000142,0.0
 0000770,-0.00000644,-0.00000226,0.00001494,-0.00000580,-0.00000371,-0.
 00003296,0.00003900,-0.00002122,-0.00000929,-0.00002557,0.00000240,-0.
 00001527,0.00000578,0.00000161,-0.00001400,0.00000903,-0.00000648,-0.0
 0002001,0.00001309,-0.00001615,-0.00003405,-0.00004242,0.00002206,0.00
 000075,0.00000508,0.00000195,-0.00003150,-0.00002342,-0.00001754,0.000
 00277,0.00000212,-0.00000191,-0.00002357,0.00002272,0.00000300,0.00000
 216,-0.00000211,0.00000254,-0.00000897,0.00000172,0.00000042,-0.000011
 60,0.00000625,0.00000962,0.00000172,0.00000212,-0.00000328,0.00000422,
 -0.00000766,0.00000693,-0.00000458,0.00000032,0.00000315,0.00000048,-0
 .00000206,-0.00000098,-0.00000157,0.00000041,0.00000151,0.00000147,-0.
 00000018,0.00000263,0.00000115,0.00000163,-0.00000073,-0.00000090,-0.0
 0000193,-0.00000103,0.00000032,-0.00000023,-0.00000015,-0.00000056,-0.
 00000020,0.00000022,-0.00000086,-0.00000029,0.00000036,0.00000166,0.00
 000040,0.00000038,-0.00000057,-0.00000015,-0.00000059,0.00000056,-0.00
 000108,-0.00000003,0.00000014,0.00000041,-0.00000006,0.00000128,0.0000
 0211,-0.00000202,0.00000219,-0.00000355,0.00000033,-0.00000162,0.00000
 031,-0.00000021,-0.00000275,-0.00000102,0.00000145,0.00000098,0.000000
 05,0.00000046,-0.00001697,0.00006857,0.00001728,-0.00000763,-0.0000231
 8,0.00001555,-0.00000591,-0.00003271,-0.00000291,0.00002800,-0.0000083
 7,0.00000128,0.00000206,0.00002526,-0.00002952,-0.00000228,0.00000174,
 -0.00000019,-0.00000851,0.00000251,0.00000035,-0.00000493,-0.00001145,
 0.00000226,-0.00000267,-0.00000791,0.00000888,-0.00000389,-0.00000186,
 -0.00000034,0.00000107,-0.00000664,-0.00000142,-0.00010087,-0.00019079
 ,-0.00019628,-0.00013269,0.00012281,0.00012801,-0.00061486,-0.00033545
 ,-0.00113082,0.00032266,0.00091504,-0.00050960,-0.00014910,0.00038542,
 0.00112719,0.00027021,0.00012774,-0.00006158,0.00004721,-0.00009154,0.
 00016586,-0.00002623,0.00004063,-0.00003392,-0.00002837,0.00003152,-0.
 00002957,0.00003435,0.00018928,-0.00000879,0.09519134,-0.08904943,-0.1
 6334798,0.01706692,-0.01634412,-0.01906831,-0.10478253,0.09926852,0.17
 603773,-0.00007281,0.00013351,0.00004098,0.00003457,0.00001700,-0.0000
 2528,0.00146593,-0.00109083,0.00097672,-0.00001139,0.00004312,-0.00000
 446,0.00000494,0.00001538,-0.00000439,0.00000141,0.00000419,-0.0000040
 3,0.00001088,0.00001160,0.00000032,0.00000279,0.00000495,0.00000284,0.
 00000468,0.00000492,-0.00000053,0.00000704,0.00000198,0.00000310,0.000
 02638,0.00003449,0.00000118,0.00006753,0.00001540,-0.00003329,0.000015
 45,-0.00003453,-0.00000550,0.00000257,-0.00000510,0.00000010,-0.000002
 28,-0.00000914,0.00000409,-0.00000564,0.00000297,-0.00000248,0.0000054
 2,-0.00002729,0.00000817,-0.00000614,-0.00001095,0.00000750,0.00000079
 ,0.00000119,0.00000005,-0.00000968,-0.00000892,-0.00000520,0.00000129,
 0.00000019,-0.00000037,-0.00000891,0.00000102,-0.00000529,-0.00000020,
 -0.00000034,0.00000202,-0.00002903,-0.00000933,-0.00000387,-0.00006066
 ,-0.00005237,0.00004028,0.00000538,0.00000567,-0.00000668,0.00000040,0
 .00000367,0.00000104,-0.00000095,-0.00000037,0.00000158,0.00000009,-0.
 00000008,-0.00000063,-0.00000150,-0.00000163,0.00000041,-0.00000120,0.
 00000154,-0.00000186,0.00000046,0.00000059,0.,0.00000004,0.,0.00000062
 ,-0.00000019,-0.00000013,-0.00000028,-0.00000030,-0.00000005,0.0000003
 1,0.00000009,-0.00000012,-0.00000007,0.00000053,0.00000006,0.00000009,
 -0.00000051,-0.00000025,-0.00000097,-0.00000028,-0.00000033,-0.0000002
 8,0.00000034,0.00000043,0.00000024,-0.00000138,-0.00000504,-0.00000082
 ,0.00000211,0.00000185,0.00000246,-0.00000227,0.00000132,0.00000114,-0
 .00000290,-0.00000173,-0.00000050,0.00000163,-0.00000118,-0.00000076,-
 0.00015171,-0.00018787,-0.00014395,0.00016080,0.00027754,-0.00027615,-
 0.00021274,0.00029323,0.00016588,-0.00003126,0.00034732,-0.00008759,-0
 .00009352,0.00006763,-0.00017561,-0.00009612,-0.00014282,0.00004034,0.
 00001121,-0.00003188,-0.00002297,0.00014853,-0.00000462,-0.00010542,-0
 .00000721,-0.00002172,0.00003709,-0.00002095,-0.00000032,-0.00000521,0
 .00001154,-0.00001355,0.00001051,-0.00010548,0.00010402,-0.00025621,0.
 00007230,-0.00002467,-0.00006624,0.00002096,-0.00000554,-0.00007638,-0
 .00041693,-0.03261528,0.00779083,0.00117684,0.00053818,0.00014157,-0.0
 0636854,-0.00227192,0.00020344,0.00003414,0.00000244,0.00003065,0.0000
 2165,0.00000686,0.00005597,-0.00000846,0.00002869,-0.00003952,-0.00009
 922,-0.00001153,0.00003141,-0.04906615,0.00403045,-0.00003594,-0.00041
 109,0.01413441,-0.00248560,-0.00021206,0.01717045,-0.00669950,0.054198
 91,-0.00007335,0.00010334,-0.00011197,-0.00002155,-0.00000828,0.000018
 76,0.00087399,-0.00084297,0.00112884,-0.00002452,0.00005508,-0.0000112
 7,-0.00000880,0.00000474,-0.00000147,-0.00000632,0.00000145,0.00000150
 ,-0.00000907,0.00000603,-0.00000210,-0.00000326,0.00000199,-0.00000137
 ,-0.00001227,0.00001935,-0.00000150,0.00000062,0.00000773,0.00000560,0
 .00002059,0.00004319,0.00000860,0.00005280,0.00002279,-0.00002644,0.00
 003500,-0.00004992,0.00000924,0.00000599,0.00000280,-0.00000062,0.0000
 0527,-0.00001167,0.00000211,0.00000257,-0.00000451,0.00000200,0.000015
 24,-0.00003083,0.00001479,0.00000814,0.00000222,-0.00000245,0.00000115
 ,-0.00000028,-0.00000045,0.00000615,0.00000062,0.00000148,-0.00000015,
 -0.00000098,0.00000086,0.00000665,-0.00001518,-0.00000927,-0.00000156,
 0.00000085,0.00000049,-0.00001872,-0.00001173,-0.00000776,-0.00004987,
 -0.00006152,0.00002490,0.00000353,0.00000358,-0.00000339,-0.00000235,0
 .00000775,-0.00000464,0.00000145,-0.00000046,-0.00000086,-0.00000021,0
 .00000095,-0.00000011,-0.00000086,-0.00000191,-0.00000066,-0.00000196,
 0.00000193,-0.00000270,0.00000033,-0.00000007,0.00000038,0.00000013,0.
 00000058,0.00000124,-0.00000016,-0.00000001,-0.00000048,-0.00000008,0.
 00000024,0.00000026,0.00000064,-0.00000015,-0.00000047,-0.00000023,-0.
 00000024,-0.00000008,-0.00000013,-0.00000041,-0.00000071,-0.00000086,0
 .00000033,-0.00000017,0.00000036,0.00000028,0.00000033,-0.00000260,-0.
 00000582,0.00000152,-0.00000027,0.00000354,0.00000255,-0.00000143,0.00
 000180,0.00000115,-0.00000164,-0.00000147,-0.00000150,0.00000115,-0.00
 000112,-0.00000070,0.00040953,0.00026087,0.00000515,-0.00022029,-0.000
 01878,0.00058901,-0.00006416,0.00019093,0.00001083,0.00020276,0.000092
 60,0.00013705,0.00027845,-0.00015175,-0.00032715,0.00003931,-0.0001154
 5,0.00002845,0.00002225,-0.00002611,-0.00002905,0.00007090,0.00000500,
 -0.00009653,-0.00001072,0.00001963,-0.00001012,-0.00000767,0.00000917,
 0.00000827,0.00000938,-0.00001946,-0.00001534,-0.00020959,0.00010103,-
 0.00025443,0.00002354,-0.00000657,-0.00006240,0.00006849,-0.00009503,0
 .00001644,-0.00211155,-0.01021307,0.00176585,-0.00021800,0.00051766,0.
 00004818,-0.00208948,0.00085243,0.00026791,0.00011304,-0.00000850,0.00
 018273,-0.00003339,0.00004302,-0.00003306,-0.00001767,0.00003006,-0.00
 003887,-0.00002769,0.00013158,-0.00003177,0.00279373,-0.29774923,0.067
 41973,0.00068881,-0.00085132,0.00037681,0.00020741,-0.01473627,0.00459
 332,-0.00071686,0.32249395,-0.00005930,0.00000940,-0.00000733,0.000065
 68,0.00001551,-0.00000495,0.00015034,-0.00064450,0.00041058,0.00002703
 ,-0.00000949,0.00000069,0.00002654,0.00002379,-0.00000901,0.00001297,0
 .00000606,-0.00001396,0.00003416,0.00001034,0.00000250,0.00000963,0.00
 000568,0.00000503,0.00002731,-0.00002118,-0.00000307,0.00000864,-0.000
 00940,-0.00001063,0.00001214,-0.00002262,-0.00003665,0.00003690,-0.000
 01332,-0.00003794,-0.00001619,0.00002649,-0.00001735,-0.00000583,-0.00
 002062,0.00000600,-0.00001177,0.00000344,0.00000213,-0.00001370,0.0000
 1127,-0.00000434,-0.00001400,0.00000332,-0.00000597,-0.00002773,-0.000
 02750,0.00002373,0.00000024,0.00000296,0.00000068,-0.00002577,-0.00001
 626,-0.00000912,0.00000265,0.00000203,-0.00000202,-0.00002352,0.000025
 80,0.00001482,0.00000122,-0.00000182,0.00000163,-0.00002687,0.00000913
 ,0.00002673,-0.00002156,0.00001935,0.00006276,0.00000237,0.00000311,-0
 .00000991,0.00000174,-0.00000397,0.00000231,-0.00000237,0.00000075,0.0
 0000246,-0.00000007,-0.00000169,-0.00000107,0.00000009,0.00000064,0.00
 000181,0.00000003,-0.00000239,-0.00000116,0.00000078,0.00000134,-0.000
 00051,-0.00000038,-0.00000147,-0.00000064,-0.00000012,-0.00000021,0.00
 000003,-0.00000016,-0.00000054,0.00000047,-0.00000062,0.00000024,0.000
 00062,0.00000126,0.00000027,0.00000015,-0.00000051,0.00000040,-0.00000
 072,0.00000088,-0.00000105,0.,-0.00000019,0.00000026,0.,0.00000089,-0.
 00000117,-0.00000270,0.00000323,-0.00000231,-0.00000217,0.00000134,-0.
 00000400,0.00000022,0.00000322,0.00000250,-0.00000155,-0.00000088,-0.0
 0000052,-0.00000183,-0.00037526,-0.00037371,0.00011800,-0.00015887,0.0
 0031249,-0.00020219,0.00000748,-0.00002610,-0.00001128,0.00003763,0.00
 030540,-0.00007652,-0.00027744,-0.00010898,-0.00059955,0.00002334,-0.0
 0009779,-0.00002273,0.00004389,-0.00000616,-0.00000418,0.00009954,-0.0
 0002566,-0.00007343,-0.00001053,0.00000380,0.00002914,-0.00000535,-0.0
 0000338,0.00000363,0.00002176,-0.00002898,0.00000297,0.00001068,0.0000
 3262,-0.00000413,-0.00002207,0.00002390,-0.00000026,0.00005596,-0.0000
 1636,0.00005799,-0.00039374,0.00050767,-0.00133018,-0.00010548,0.00045
 280,-0.00013718,0.00014323,-0.00016924,0.00083146,0.00001113,-0.000032
 59,0.00014739,-0.00002874,0.00002703,-0.00005970,-0.00001319,0.0000326
 5,-0.00000629,0.00003385,0.00014145,-0.00004395,0.00040314,0.06815252,
 -0.06933180,0.00029939,0.02986212,-0.00696891,-0.00096094,-0.02275909,
 0.00685669,0.00098088,-0.07558447,0.07044424\\-0.00000043,-0.00000020,
 -0.00000088,-0.00000072,0.00000057,0.00000186,0.00000152,-0.00000282,0
 .00000041,0.00000148,-0.00000195,0.00000066,0.00000035,-0.00000006,0.0
 0000245,-0.00000112,0.00000175,0.00000434,-0.00000019,0.00000167,0.000
 00146,-0.00000193,-0.00000031,0.00000165,0.00000044,-0.00000292,-0.000
 00001,0.00000054,0.00000051,-0.00000195,0.00000086,0.00000372,-0.00000
 111,0.00000185,0.00000133,-0.00000459,-0.00000003,0.00000200,0.0000020
 9,-0.00000150,0.00000084,0.00000224,-0.00000103,-0.00000063,0.00000063
 ,-0.00000030,0.00000128,-0.00000088,-0.00000094,0.00000231,-0.00000036
 ,0.00000016,0.00000119,0.00000382,-0.00000179,0.00000073,0.00000458,0.
 00000025,0.00000005,0.00000396,0.00000011,0.00000048,0.00000221,-0.000
 00076,0.00000194,0.00000095,0.00000016,-0.00000042,-0.00000103,0.00000
 125,-0.00000128,-0.00000187,0.00000018,-0.00000103,-0.00000134,0.00000
 403,0.00000208,-0.00000281,-0.00000043,-0.00000084,0.00000141,0.000000
 14,0.00000144,0.00000207,-0.00000050,-0.00000011,0.00000157,0.00000042
 ,0.00000128,-0.00000007,-0.00000061,-0.00000241,0.00000021,-0.00000078
 ,0.00000106,0.00000544,-0.00000112,0.00000011,0.00000525,-0.00000099,0
 .00000024,0.00000478,-0.00000050,0.00000239,0.00000205,0.,0.00000290,0
 .00000365,-0.00000027,0.00000160,0.00000320,0.00000003,-0.00000123,-0.
 00000187,0.00000071,0.00000026,-0.00000172,0.00000008,-0.00000067,-0.0
 0000054,0.00000049,0.00000050,-0.00000136,0.00000064,-0.00000065,-0.00
 000154,0.00000109,0.00000256,-0.00000382,0.00000002,0.00000217,-0.0000
 0231,0.00000108,0.00000324,-0.00000246,-0.00000165,-0.00000026,-0.0000
 0012,0.00000034,-0.00000201,-0.00000287,0.00000082,0.00000046,-0.00000
 258,0.00000045,-0.00000193,-0.00000332,0.00000004,-0.00000205,-0.00000
 200,-0.00000084,-0.00000064,-0.00000293,0.00000031,-0.00000064,-0.0000
 0132,0.00000100,-0.00000177,-0.00000373,0.00000023,-0.00000245,-0.0000
 0387,-0.00000009,0.00000033,-0.00000309,0.00000058,-0.00000161,-0.0000
 0464,0.00000009,-0.00000198,0.00000015,-0.00000076,-0.00000307,0.00000
 013,-0.00000086,-0.00000146,-0.00000036,-0.00000038,-0.00000047,-0.000
 00139,0.00000056,0.00000131,-0.00000059,-0.00000015,0.00000094,0.00000
 085,-0.00000044,-0.00000073,0.00000168,-0.00000102,-0.00000184,0.00000
 181,-0.00000120,-0.00000279,0.00000143,-0.00000041,-0.00000150,0.00000
 122,0.00000048,-0.00000041,-0.00000097,0.00000059,0.00000060,-0.000001
 22,0.00000007,-0.00000055,-0.00000099,0.00000031,-0.00000013,-0.000001
 72\\\@


 ... THE UNIVERSE IS NOT ONLY QUEERER THAN WE SUPPOSE,
 BUT QUEERER THAN WE CAN SUPPOSE ... 

                                   -- J. B. S. HALDANE
 Job cpu time:       0 days  9 hours 41 minutes 36.9 seconds.
 File lengths (MBytes):  RWF=   3013 Int=      0 D2E=      0 Chk=     30 Scr=      1
 Normal termination of Gaussian 09 at Mon Apr  3 22:27:04 2023.
