 Entering Gaussian System, Link 0=g09
 Input=AF33-helio.com
 Output=AF33-helio.log
 Initial command:
 /home/scr/programs/g09/l1.exe "/home/scr/helius/Gau-2290.inp" -scrdir="/home/scr/helius/"
 Entering Link 1 = /home/scr/programs/g09/l1.exe PID=      2292.
  
 Copyright (c) 1988,1990,1992,1993,1995,1998,2003,2009,2013,
            Gaussian, Inc.  All Rights Reserved.
  
 This is part of the Gaussian(R) 09 program.  It is based on
 the Gaussian(R) 03 system (copyright 2003, Gaussian, Inc.),
 the Gaussian(R) 98 system (copyright 1998, Gaussian, Inc.),
 the Gaussian(R) 94 system (copyright 1995, Gaussian, Inc.),
 the Gaussian 92(TM) system (copyright 1992, Gaussian, Inc.),
 the Gaussian 90(TM) system (copyright 1990, Gaussian, Inc.),
 the Gaussian 88(TM) system (copyright 1988, Gaussian, Inc.),
 the Gaussian 86(TM) system (copyright 1986, Carnegie Mellon
 University), and the Gaussian 82(TM) system (copyright 1983,
 Carnegie Mellon University). Gaussian is a federally registered
 trademark of Gaussian, Inc.
  
 This software contains proprietary and confidential information,
 including trade secrets, belonging to Gaussian, Inc.
  
 This software is provided under written license and may be
 used, copied, transmitted, or stored only in accord with that
 written license.
  
 The following legend is applicable only to US Government
 contracts under FAR:
  
                    RESTRICTED RIGHTS LEGEND
  
 Use, reproduction and disclosure by the US Government is
 subject to restrictions as set forth in subparagraphs (a)
 and (c) of the Commercial Computer Software - Restricted
 Rights clause in FAR 52.227-19.
  
 Gaussian, Inc.
 340 Quinnipiac St., Bldg. 40, Wallingford CT 06492
  
  
 ---------------------------------------------------------------
 Warning -- This program may not be used in any manner that
 competes with the business of Gaussian, Inc. or will provide
 assistance to any competitor of Gaussian, Inc.  The licensee
 of this program is prohibited from giving any competitor of
 Gaussian, Inc. access to this program.  By using this program,
 the user acknowledges that Gaussian, Inc. is engaged in the
 business of creating and licensing software in the field of
 computational chemistry and represents and warrants to the
 licensee that it is not a competitor of Gaussian, Inc. and that
 it will not use this program in any manner prohibited above.
 ---------------------------------------------------------------
  

 Cite this work as:
 Gaussian 09, Revision D.01,
 M. J. Frisch, G. W. Trucks, H. B. Schlegel, G. E. Scuseria, 
 M. A. Robb, J. R. Cheeseman, G. Scalmani, V. Barone, B. Mennucci, 
 G. A. Petersson, H. Nakatsuji, M. Caricato, X. Li, H. P. Hratchian, 
 A. F. Izmaylov, J. Bloino, G. Zheng, J. L. Sonnenberg, M. Hada, 
 M. Ehara, K. Toyota, R. Fukuda, J. Hasegawa, M. Ishida, T. Nakajima, 
 Y. Honda, O. Kitao, H. Nakai, T. Vreven, J. A. Montgomery, Jr., 
 J. E. Peralta, F. Ogliaro, M. Bearpark, J. J. Heyd, E. Brothers, 
 K. N. Kudin, V. N. Staroverov, T. Keith, R. Kobayashi, J. Normand, 
 K. Raghavachari, A. Rendell, J. C. Burant, S. S. Iyengar, J. Tomasi, 
 M. Cossi, N. Rega, J. M. Millam, M. Klene, J. E. Knox, J. B. Cross, 
 V. Bakken, C. Adamo, J. Jaramillo, R. Gomperts, R. E. Stratmann, 
 O. Yazyev, A. J. Austin, R. Cammi, C. Pomelli, J. W. Ochterski, 
 R. L. Martin, K. Morokuma, V. G. Zakrzewski, G. A. Voth, 
 P. Salvador, J. J. Dannenberg, S. Dapprich, A. D. Daniels, 
 O. Farkas, J. B. Foresman, J. V. Ortiz, J. Cioslowski, 
 and D. J. Fox, Gaussian, Inc., Wallingford CT, 2013.
 
 ******************************************
 Gaussian 09:  EM64L-G09RevD.01 24-Apr-2013
                29-Mar-2023 
 ******************************************
 %mem=30000MB
 %nprocshared=8
 Will use up to    8 processors via shared memory.
 ----------------------------------------
 # opt freq=noraman b3lyp/gen pseudo=read
 ----------------------------------------
 1/14=-1,18=20,19=15,26=3,38=1/1,3;
 2/9=110,12=2,17=6,18=5,40=1/2;
 3/5=7,11=2,16=1,17=8,25=1,30=1,71=1,74=-5/1,2,3;
 4//1;
 5/5=2,38=5/2;
 6/7=2,8=2,9=2,10=2,28=1/1;
 7//1,2,3,16;
 1/14=-1,18=20,19=15,26=3/3(2);
 2/9=110/2;
 99//99;
 2/9=110/2;
 3/5=7,6=1,11=2,16=1,17=8,25=1,30=1,71=1,74=-5,82=7/1,2,3;
 4/5=5,16=3,69=1/1;
 5/5=2,38=5/2;
 7//1,2,3,16;
 1/14=-1,18=20,19=15,26=3/3(-5);
 2/9=110/2;
 6/7=2,8=2,9=2,10=2,19=2,28=1/1;
 99/9=1/99;
 --
 af
 --
 Symbolic Z-matrix:
 Charge =  0 Multiplicity = 1
 Au                   -2.40311  -0.63774  -0.42614 
 S                    -0.38052  -1.4409   -1.27463 
 P                    -4.41595   0.10813   0.35209 
 O                     1.01793   0.63941  -0.43206 
 O                     2.10481  -2.79629   0.03834 
 O                     2.68032  -3.54065  -2.00787 
 O                     4.54072  -1.3246    0.18163 
 O                     4.84003  -2.15606   2.25362 
 O                     4.14534   1.30047   1.29108 
 O                     5.65053   1.96341  -0.24749 
 O                     2.29294   3.05791  -1.08649 
 O                     1.99529   5.2431   -0.70921 
 C                     0.8559   -0.74044  -0.15886 
 C                     2.20764  -1.43596  -0.35951 
 C                     3.26683  -0.78249   0.51912 
 C                     3.29917   0.72133   0.3023 
 C                     1.88725   1.29039   0.46896 
 C                     2.33619  -3.75845  -0.87225 
 C                     2.09759  -5.11273  -0.27974 
 C                     5.23205  -1.99202   1.12451 
 C                     6.53215  -2.48839   0.57173 
 C                     5.29251   1.89003   0.90155 
 C                     6.03507   2.43017   2.0843 
 C                     1.80251   2.77901   0.22316 
 C                     2.34701   4.34609  -1.43967 
 C                     2.89511   4.51084  -2.82411 
 H                     0.53235  -0.87129   0.88362 
 H                     2.49629  -1.38058  -1.4137 
 H                     3.05908  -1.00013   1.57221 
 H                     3.68457   0.95776  -0.69289 
 H                     1.55617   1.12233   1.50763 
 H                     2.44792  -5.88403  -0.96451 
 H                     1.02388  -5.23803  -0.10616 
 H                     2.60027  -5.2012    0.68641 
 H                     7.11381  -1.64784   0.18293 
 H                     6.33989  -3.16814  -0.26348 
 H                     7.09241  -3.00407   1.35045 
 H                     5.40585   3.14662   2.62 
 H                     6.95392   2.91297   1.75449 
 H                     6.26739   1.61592   2.77674 
 H                     0.76129   3.10518   0.30416 
 H                     2.39563   3.32016   0.96638 
 H                     2.88219   5.56338  -3.10414 
 H                     2.30317   3.92544  -3.53295 
 H                     3.92021   4.12999  -2.85918 
 C                    -5.06076  -0.82433   1.77851 
 H                    -4.35655  -0.6413    2.59756 
 H                    -6.02973  -0.4127    2.08014 
 C                    -5.7137    0.05448  -0.93274 
 H                    -5.44024   0.83999  -1.64775 
 H                    -5.53786  -0.89416  -1.45538 
 C                    -5.17152  -2.32035   1.48518 
 H                    -4.20535  -2.73604   1.18071 
 H                    -5.50252  -2.85216   2.38174 
 H                    -5.89445  -2.52867   0.69019 
 C                    -7.17751   0.16478  -0.51146 
 H                    -7.40051   1.1112   -0.01325 
 H                    -7.81533   0.10007  -1.39848 
 H                    -7.46954  -0.64755   0.16031 
 O                    -4.22899   1.63481   0.84308 
 C                    -5.28841   2.46847   1.33837 
 H                    -5.92191   2.76855   0.49632 
 H                    -5.8997    1.9083    2.05508 
 C                    -4.6667    3.67741   1.99664 
 H                    -4.053     4.23415   1.28236 
 H                    -5.45677   4.3399    2.36343 
 H                    -4.04129   3.381     2.84377 
 

 GradGradGradGradGradGradGradGradGradGradGradGradGradGradGradGradGradGrad
 Berny optimization.
 Initialization pass.
                           ----------------------------
                           !    Initial Parameters    !
                           ! (Angstroms and Degrees)  !
 --------------------------                            --------------------------
 ! Name  Definition              Value          Derivative Info.                !
 --------------------------------------------------------------------------------
 ! R1    R(1,2)                  2.3358         estimate D2E/DX2                !
 ! R2    R(1,3)                  2.2833         estimate D2E/DX2                !
 ! R3    R(2,13)                 1.8067         estimate D2E/DX2                !
 ! R4    R(3,46)                 1.8221         estimate D2E/DX2                !
 ! R5    R(3,49)                 1.827          estimate D2E/DX2                !
 ! R6    R(3,60)                 1.6145         estimate D2E/DX2                !
 ! R7    R(4,13)                 1.4159         estimate D2E/DX2                !
 ! R8    R(4,17)                 1.4111         estimate D2E/DX2                !
 ! R9    R(5,14)                 1.421          estimate D2E/DX2                !
 ! R10   R(5,18)                 1.3448         estimate D2E/DX2                !
 ! R11   R(6,18)                 1.2064         estimate D2E/DX2                !
 ! R12   R(7,15)                 1.425          estimate D2E/DX2                !
 ! R13   R(7,20)                 1.3462         estimate D2E/DX2                !
 ! R14   R(8,20)                 1.2064         estimate D2E/DX2                !
 ! R15   R(9,16)                 1.4245         estimate D2E/DX2                !
 ! R16   R(9,22)                 1.3473         estimate D2E/DX2                !
 ! R17   R(10,22)                1.2058         estimate D2E/DX2                !
 ! R18   R(11,24)                1.426          estimate D2E/DX2                !
 ! R19   R(11,25)                1.3368         estimate D2E/DX2                !
 ! R20   R(12,25)                1.2091         estimate D2E/DX2                !
 ! R21   R(13,14)                1.5334         estimate D2E/DX2                !
 ! R22   R(13,27)                1.0994         estimate D2E/DX2                !
 ! R23   R(14,15)                1.5235         estimate D2E/DX2                !
 ! R24   R(14,28)                1.0944         estimate D2E/DX2                !
 ! R25   R(15,16)                1.5197         estimate D2E/DX2                !
 ! R26   R(15,29)                1.0952         estimate D2E/DX2                !
 ! R27   R(16,17)                1.5314         estimate D2E/DX2                !
 ! R28   R(16,30)                1.0931         estimate D2E/DX2                !
 ! R29   R(17,24)                1.5112         estimate D2E/DX2                !
 ! R30   R(17,31)                1.103          estimate D2E/DX2                !
 ! R31   R(18,19)                1.4974         estimate D2E/DX2                !
 ! R32   R(19,32)                1.0893         estimate D2E/DX2                !
 ! R33   R(19,33)                1.0948         estimate D2E/DX2                !
 ! R34   R(19,34)                1.0927         estimate D2E/DX2                !
 ! R35   R(20,21)                1.4974         estimate D2E/DX2                !
 ! R36   R(21,35)                1.0936         estimate D2E/DX2                !
 ! R37   R(21,36)                1.0939         estimate D2E/DX2                !
 ! R38   R(21,37)                1.0891         estimate D2E/DX2                !
 ! R39   R(22,23)                1.4973         estimate D2E/DX2                !
 ! R40   R(23,38)                1.0937         estimate D2E/DX2                !
 ! R41   R(23,39)                1.0891         estimate D2E/DX2                !
 ! R42   R(23,40)                1.0938         estimate D2E/DX2                !
 ! R43   R(24,41)                1.0941         estimate D2E/DX2                !
 ! R44   R(24,42)                1.0941         estimate D2E/DX2                !
 ! R45   R(25,26)                1.4981         estimate D2E/DX2                !
 ! R46   R(26,43)                1.0892         estimate D2E/DX2                !
 ! R47   R(26,44)                1.0934         estimate D2E/DX2                !
 ! R48   R(26,45)                1.0941         estimate D2E/DX2                !
 ! R49   R(46,47)                1.0956         estimate D2E/DX2                !
 ! R50   R(46,48)                1.0951         estimate D2E/DX2                !
 ! R51   R(46,52)                1.5285         estimate D2E/DX2                !
 ! R52   R(49,50)                1.0968         estimate D2E/DX2                !
 ! R53   R(49,51)                1.0973         estimate D2E/DX2                !
 ! R54   R(49,56)                1.5272         estimate D2E/DX2                !
 ! R55   R(52,53)                1.095          estimate D2E/DX2                !
 ! R56   R(52,54)                1.0937         estimate D2E/DX2                !
 ! R57   R(52,55)                1.0945         estimate D2E/DX2                !
 ! R58   R(56,57)                1.0926         estimate D2E/DX2                !
 ! R59   R(56,58)                1.0944         estimate D2E/DX2                !
 ! R60   R(56,59)                1.0938         estimate D2E/DX2                !
 ! R61   R(60,61)                1.4362         estimate D2E/DX2                !
 ! R62   R(61,62)                1.0956         estimate D2E/DX2                !
 ! R63   R(61,63)                1.096          estimate D2E/DX2                !
 ! R64   R(61,64)                1.5104         estimate D2E/DX2                !
 ! R65   R(64,65)                1.094          estimate D2E/DX2                !
 ! R66   R(64,66)                1.0944         estimate D2E/DX2                !
 ! R67   R(64,67)                1.0939         estimate D2E/DX2                !
 ! A1    A(1,2,13)             103.5879         estimate D2E/DX2                !
 ! A2    A(1,3,46)             114.3065         estimate D2E/DX2                !
 ! A3    A(1,3,49)             112.1419         estimate D2E/DX2                !
 ! A4    A(1,3,60)             108.0867         estimate D2E/DX2                !
 ! A5    A(46,3,49)            106.5077         estimate D2E/DX2                !
 ! A6    A(46,3,60)            106.6673         estimate D2E/DX2                !
 ! A7    A(49,3,60)            108.8981         estimate D2E/DX2                !
 ! A8    A(13,4,17)            113.3814         estimate D2E/DX2                !
 ! A9    A(14,5,18)            118.8733         estimate D2E/DX2                !
 ! A10   A(15,7,20)            118.8031         estimate D2E/DX2                !
 ! A11   A(16,9,22)            118.8816         estimate D2E/DX2                !
 ! A12   A(24,11,25)           116.4246         estimate D2E/DX2                !
 ! A13   A(2,13,4)             109.692          estimate D2E/DX2                !
 ! A14   A(2,13,14)            110.2803         estimate D2E/DX2                !
 ! A15   A(2,13,27)            109.7585         estimate D2E/DX2                !
 ! A16   A(4,13,14)            108.4157         estimate D2E/DX2                !
 ! A17   A(4,13,27)            109.4286         estimate D2E/DX2                !
 ! A18   A(14,13,27)           109.2416         estimate D2E/DX2                !
 ! A19   A(5,14,13)            109.4989         estimate D2E/DX2                !
 ! A20   A(5,14,15)            107.4247         estimate D2E/DX2                !
 ! A21   A(5,14,28)            109.7075         estimate D2E/DX2                !
 ! A22   A(13,14,15)           110.0519         estimate D2E/DX2                !
 ! A23   A(13,14,28)           109.6094         estimate D2E/DX2                !
 ! A24   A(15,14,28)           110.5158         estimate D2E/DX2                !
 ! A25   A(7,15,14)            108.7693         estimate D2E/DX2                !
 ! A26   A(7,15,16)            108.8836         estimate D2E/DX2                !
 ! A27   A(7,15,29)            108.7658         estimate D2E/DX2                !
 ! A28   A(14,15,16)           110.9139         estimate D2E/DX2                !
 ! A29   A(14,15,29)           109.7198         estimate D2E/DX2                !
 ! A30   A(16,15,29)           109.7468         estimate D2E/DX2                !
 ! A31   A(9,16,15)            108.4165         estimate D2E/DX2                !
 ! A32   A(9,16,17)            108.7276         estimate D2E/DX2                !
 ! A33   A(9,16,30)            109.5476         estimate D2E/DX2                !
 ! A34   A(15,16,17)           109.4248         estimate D2E/DX2                !
 ! A35   A(15,16,30)           110.5748         estimate D2E/DX2                !
 ! A36   A(17,16,30)           110.1075         estimate D2E/DX2                !
 ! A37   A(4,17,16)            109.0914         estimate D2E/DX2                !
 ! A38   A(4,17,24)            108.4231         estimate D2E/DX2                !
 ! A39   A(4,17,31)            110.2458         estimate D2E/DX2                !
 ! A40   A(16,17,24)           113.5818         estimate D2E/DX2                !
 ! A41   A(16,17,31)           108.8202         estimate D2E/DX2                !
 ! A42   A(24,17,31)           106.6438         estimate D2E/DX2                !
 ! A43   A(5,18,6)             123.8689         estimate D2E/DX2                !
 ! A44   A(5,18,19)            110.5942         estimate D2E/DX2                !
 ! A45   A(6,18,19)            125.5355         estimate D2E/DX2                !
 ! A46   A(18,19,32)           109.902          estimate D2E/DX2                !
 ! A47   A(18,19,33)           108.8152         estimate D2E/DX2                !
 ! A48   A(18,19,34)           110.4755         estimate D2E/DX2                !
 ! A49   A(32,19,33)           109.5142         estimate D2E/DX2                !
 ! A50   A(32,19,34)           110.5216         estimate D2E/DX2                !
 ! A51   A(33,19,34)           107.56           estimate D2E/DX2                !
 ! A52   A(7,20,8)             123.7817         estimate D2E/DX2                !
 ! A53   A(7,20,21)            110.5884         estimate D2E/DX2                !
 ! A54   A(8,20,21)            125.6299         estimate D2E/DX2                !
 ! A55   A(20,21,35)           109.7699         estimate D2E/DX2                !
 ! A56   A(20,21,36)           109.588          estimate D2E/DX2                !
 ! A57   A(20,21,37)           109.855          estimate D2E/DX2                !
 ! A58   A(35,21,36)           107.4362         estimate D2E/DX2                !
 ! A59   A(35,21,37)           110.1507         estimate D2E/DX2                !
 ! A60   A(36,21,37)           110.005          estimate D2E/DX2                !
 ! A61   A(9,22,10)            123.7073         estimate D2E/DX2                !
 ! A62   A(9,22,23)            110.5926         estimate D2E/DX2                !
 ! A63   A(10,22,23)           125.6998         estimate D2E/DX2                !
 ! A64   A(22,23,38)           109.7481         estimate D2E/DX2                !
 ! A65   A(22,23,39)           109.822          estimate D2E/DX2                !
 ! A66   A(22,23,40)           109.6845         estimate D2E/DX2                !
 ! A67   A(38,23,39)           110.0789         estimate D2E/DX2                !
 ! A68   A(38,23,40)           107.4433         estimate D2E/DX2                !
 ! A69   A(39,23,40)           110.0296         estimate D2E/DX2                !
 ! A70   A(11,24,17)           108.8301         estimate D2E/DX2                !
 ! A71   A(11,24,41)           109.6933         estimate D2E/DX2                !
 ! A72   A(11,24,42)           109.9196         estimate D2E/DX2                !
 ! A73   A(17,24,41)           109.5717         estimate D2E/DX2                !
 ! A74   A(17,24,42)           110.2642         estimate D2E/DX2                !
 ! A75   A(41,24,42)           108.5518         estimate D2E/DX2                !
 ! A76   A(11,25,12)           122.9233         estimate D2E/DX2                !
 ! A77   A(11,25,26)           111.4034         estimate D2E/DX2                !
 ! A78   A(12,25,26)           125.6727         estimate D2E/DX2                !
 ! A79   A(25,26,43)           109.8477         estimate D2E/DX2                !
 ! A80   A(25,26,44)           110.0086         estimate D2E/DX2                !
 ! A81   A(25,26,45)           109.5194         estimate D2E/DX2                !
 ! A82   A(43,26,44)           110.1369         estimate D2E/DX2                !
 ! A83   A(43,26,45)           109.8302         estimate D2E/DX2                !
 ! A84   A(44,26,45)           107.4623         estimate D2E/DX2                !
 ! A85   A(3,46,47)            105.8013         estimate D2E/DX2                !
 ! A86   A(3,46,48)            109.6567         estimate D2E/DX2                !
 ! A87   A(3,46,52)            112.1037         estimate D2E/DX2                !
 ! A88   A(47,46,48)           107.4594         estimate D2E/DX2                !
 ! A89   A(47,46,52)           110.705          estimate D2E/DX2                !
 ! A90   A(48,46,52)           110.8926         estimate D2E/DX2                !
 ! A91   A(3,49,50)            105.0888         estimate D2E/DX2                !
 ! A92   A(3,49,51)            104.2721         estimate D2E/DX2                !
 ! A93   A(3,49,56)            118.9947         estimate D2E/DX2                !
 ! A94   A(50,49,51)           105.5874         estimate D2E/DX2                !
 ! A95   A(50,49,56)           111.5344         estimate D2E/DX2                !
 ! A96   A(51,49,56)           110.3299         estimate D2E/DX2                !
 ! A97   A(46,52,53)           111.1607         estimate D2E/DX2                !
 ! A98   A(46,52,54)           109.9082         estimate D2E/DX2                !
 ! A99   A(46,52,55)           111.9326         estimate D2E/DX2                !
 ! A100  A(53,52,54)           108.0825         estimate D2E/DX2                !
 ! A101  A(53,52,55)           107.9736         estimate D2E/DX2                !
 ! A102  A(54,52,55)           107.6355         estimate D2E/DX2                !
 ! A103  A(49,56,57)           112.5807         estimate D2E/DX2                !
 ! A104  A(49,56,58)           109.3144         estimate D2E/DX2                !
 ! A105  A(49,56,59)           111.819          estimate D2E/DX2                !
 ! A106  A(57,56,58)           107.5687         estimate D2E/DX2                !
 ! A107  A(57,56,59)           107.9853         estimate D2E/DX2                !
 ! A108  A(58,56,59)           107.353          estimate D2E/DX2                !
 ! A109  A(3,60,61)            124.6339         estimate D2E/DX2                !
 ! A110  A(60,61,62)           108.6903         estimate D2E/DX2                !
 ! A111  A(60,61,63)           109.8934         estimate D2E/DX2                !
 ! A112  A(60,61,64)           108.1361         estimate D2E/DX2                !
 ! A113  A(62,61,63)           108.6679         estimate D2E/DX2                !
 ! A114  A(62,61,64)           110.7155         estimate D2E/DX2                !
 ! A115  A(63,61,64)           110.7123         estimate D2E/DX2                !
 ! A116  A(61,64,65)           110.7128         estimate D2E/DX2                !
 ! A117  A(61,64,66)           109.4781         estimate D2E/DX2                !
 ! A118  A(61,64,67)           110.8513         estimate D2E/DX2                !
 ! A119  A(65,64,66)           108.4063         estimate D2E/DX2                !
 ! A120  A(65,64,67)           108.8322         estimate D2E/DX2                !
 ! A121  A(66,64,67)           108.496          estimate D2E/DX2                !
 ! A122  L(2,1,3,12,-1)        181.323          estimate D2E/DX2                !
 ! A123  L(2,1,3,12,-2)        178.6575         estimate D2E/DX2                !
 ! D1    D(13,2,3,46)          -80.4431         estimate D2E/DX2                !
 ! D2    D(13,2,3,49)          158.7744         estimate D2E/DX2                !
 ! D3    D(13,2,3,60)           38.7513         estimate D2E/DX2                !
 ! D4    D(1,2,13,4)           -74.4667         estimate D2E/DX2                !
 ! D5    D(1,2,13,14)          166.1956         estimate D2E/DX2                !
 ! D6    D(1,2,13,27)           45.795          estimate D2E/DX2                !
 ! D7    D(1,3,46,47)           65.0904         estimate D2E/DX2                !
 ! D8    D(1,3,46,48)         -179.3028         estimate D2E/DX2                !
 ! D9    D(1,3,46,52)          -55.675          estimate D2E/DX2                !
 ! D10   D(49,3,46,47)        -170.494          estimate D2E/DX2                !
 ! D11   D(49,3,46,48)         -54.8872         estimate D2E/DX2                !
 ! D12   D(49,3,46,52)          68.7406         estimate D2E/DX2                !
 ! D13   D(60,3,46,47)         -54.3037         estimate D2E/DX2                !
 ! D14   D(60,3,46,48)          61.3031         estimate D2E/DX2                !
 ! D15   D(60,3,46,52)        -175.0691         estimate D2E/DX2                !
 ! D16   D(1,3,49,50)          -69.9824         estimate D2E/DX2                !
 ! D17   D(1,3,49,51)           40.8569         estimate D2E/DX2                !
 ! D18   D(1,3,49,56)          164.2811         estimate D2E/DX2                !
 ! D19   D(46,3,49,50)         164.2792         estimate D2E/DX2                !
 ! D20   D(46,3,49,51)         -84.8815         estimate D2E/DX2                !
 ! D21   D(46,3,49,56)          38.5427         estimate D2E/DX2                !
 ! D22   D(60,3,49,50)          49.5932         estimate D2E/DX2                !
 ! D23   D(60,3,49,51)         160.4325         estimate D2E/DX2                !
 ! D24   D(60,3,49,56)         -76.1433         estimate D2E/DX2                !
 ! D25   D(1,3,60,61)          176.8876         estimate D2E/DX2                !
 ! D26   D(46,3,60,61)         -59.7602         estimate D2E/DX2                !
 ! D27   D(49,3,60,61)          54.822          estimate D2E/DX2                !
 ! D28   D(17,4,13,2)          175.0764         estimate D2E/DX2                !
 ! D29   D(17,4,13,14)         -64.4476         estimate D2E/DX2                !
 ! D30   D(17,4,13,27)          54.6142         estimate D2E/DX2                !
 ! D31   D(13,4,17,16)          65.0836         estimate D2E/DX2                !
 ! D32   D(13,4,17,24)        -170.7565         estimate D2E/DX2                !
 ! D33   D(13,4,17,31)         -54.3566         estimate D2E/DX2                !
 ! D34   D(18,5,14,13)         119.2733         estimate D2E/DX2                !
 ! D35   D(18,5,14,15)        -121.2308         estimate D2E/DX2                !
 ! D36   D(18,5,14,28)          -1.0589         estimate D2E/DX2                !
 ! D37   D(14,5,18,6)            3.0049         estimate D2E/DX2                !
 ! D38   D(14,5,18,19)        -176.5869         estimate D2E/DX2                !
 ! D39   D(20,7,15,14)        -118.2954         estimate D2E/DX2                !
 ! D40   D(20,7,15,16)         120.7271         estimate D2E/DX2                !
 ! D41   D(20,7,15,29)           1.1662         estimate D2E/DX2                !
 ! D42   D(15,7,20,8)           -0.4359         estimate D2E/DX2                !
 ! D43   D(15,7,20,21)         179.5759         estimate D2E/DX2                !
 ! D44   D(22,9,16,15)         114.141          estimate D2E/DX2                !
 ! D45   D(22,9,16,17)        -126.9774         estimate D2E/DX2                !
 ! D46   D(22,9,16,30)          -6.608          estimate D2E/DX2                !
 ! D47   D(16,9,22,10)           0.2757         estimate D2E/DX2                !
 ! D48   D(16,9,22,23)        -179.868          estimate D2E/DX2                !
 ! D49   D(25,11,24,17)       -176.8596         estimate D2E/DX2                !
 ! D50   D(25,11,24,41)         63.2745         estimate D2E/DX2                !
 ! D51   D(25,11,24,42)        -56.0093         estimate D2E/DX2                !
 ! D52   D(24,11,25,12)         -0.543          estimate D2E/DX2                !
 ! D53   D(24,11,25,26)        179.1866         estimate D2E/DX2                !
 ! D54   D(2,13,14,5)          -65.7302         estimate D2E/DX2                !
 ! D55   D(2,13,14,15)         176.4032         estimate D2E/DX2                !
 ! D56   D(2,13,14,28)          54.6618         estimate D2E/DX2                !
 ! D57   D(4,13,14,5)          174.16           estimate D2E/DX2                !
 ! D58   D(4,13,14,15)          56.2935         estimate D2E/DX2                !
 ! D59   D(4,13,14,28)         -65.448          estimate D2E/DX2                !
 ! D60   D(27,13,14,5)          54.9804         estimate D2E/DX2                !
 ! D61   D(27,13,14,15)        -62.8861         estimate D2E/DX2                !
 ! D62   D(27,13,14,28)        175.3724         estimate D2E/DX2                !
 ! D63   D(5,14,15,7)           68.6055         estimate D2E/DX2                !
 ! D64   D(5,14,15,16)        -171.6723         estimate D2E/DX2                !
 ! D65   D(5,14,15,29)         -50.2594         estimate D2E/DX2                !
 ! D66   D(13,14,15,7)        -172.2528         estimate D2E/DX2                !
 ! D67   D(13,14,15,16)        -52.5305         estimate D2E/DX2                !
 ! D68   D(13,14,15,29)         68.8824         estimate D2E/DX2                !
 ! D69   D(28,14,15,7)         -51.0521         estimate D2E/DX2                !
 ! D70   D(28,14,15,16)         68.6702         estimate D2E/DX2                !
 ! D71   D(28,14,15,29)       -169.9169         estimate D2E/DX2                !
 ! D72   D(7,15,16,9)          -69.5116         estimate D2E/DX2                !
 ! D73   D(7,15,16,17)         172.0479         estimate D2E/DX2                !
 ! D74   D(7,15,16,30)          50.5988         estimate D2E/DX2                !
 ! D75   D(14,15,16,9)         170.8344         estimate D2E/DX2                !
 ! D76   D(14,15,16,17)         52.3939         estimate D2E/DX2                !
 ! D77   D(14,15,16,30)        -69.0551         estimate D2E/DX2                !
 ! D78   D(29,15,16,9)          49.4374         estimate D2E/DX2                !
 ! D79   D(29,15,16,17)        -69.0031         estimate D2E/DX2                !
 ! D80   D(29,15,16,30)        169.5478         estimate D2E/DX2                !
 ! D81   D(9,16,17,4)         -175.1019         estimate D2E/DX2                !
 ! D82   D(9,16,17,24)          63.835          estimate D2E/DX2                !
 ! D83   D(9,16,17,31)         -54.7814         estimate D2E/DX2                !
 ! D84   D(15,16,17,4)         -56.8552         estimate D2E/DX2                !
 ! D85   D(15,16,17,24)       -177.9182         estimate D2E/DX2                !
 ! D86   D(15,16,17,31)         63.4653         estimate D2E/DX2                !
 ! D87   D(30,16,17,4)          64.8756         estimate D2E/DX2                !
 ! D88   D(30,16,17,24)        -56.1874         estimate D2E/DX2                !
 ! D89   D(30,16,17,31)       -174.8039         estimate D2E/DX2                !
 ! D90   D(4,17,24,11)         -64.5193         estimate D2E/DX2                !
 ! D91   D(4,17,24,41)          55.422          estimate D2E/DX2                !
 ! D92   D(4,17,24,42)         174.8423         estimate D2E/DX2                !
 ! D93   D(16,17,24,11)         56.9178         estimate D2E/DX2                !
 ! D94   D(16,17,24,41)        176.8591         estimate D2E/DX2                !
 ! D95   D(16,17,24,42)        -63.7207         estimate D2E/DX2                !
 ! D96   D(31,17,24,11)        176.7776         estimate D2E/DX2                !
 ! D97   D(31,17,24,41)        -63.281          estimate D2E/DX2                !
 ! D98   D(31,17,24,42)         56.1392         estimate D2E/DX2                !
 ! D99   D(5,18,19,32)        -170.4049         estimate D2E/DX2                !
 ! D100  D(5,18,19,33)          69.6833         estimate D2E/DX2                !
 ! D101  D(5,18,19,34)         -48.1861         estimate D2E/DX2                !
 ! D102  D(6,18,19,32)          10.0117         estimate D2E/DX2                !
 ! D103  D(6,18,19,33)        -109.9002         estimate D2E/DX2                !
 ! D104  D(6,18,19,34)         132.2305         estimate D2E/DX2                !
 ! D105  D(7,20,21,35)          57.3064         estimate D2E/DX2                !
 ! D106  D(7,20,21,36)         -60.4603         estimate D2E/DX2                !
 ! D107  D(7,20,21,37)         178.5713         estimate D2E/DX2                !
 ! D108  D(8,20,21,35)        -122.6816         estimate D2E/DX2                !
 ! D109  D(8,20,21,36)         119.5518         estimate D2E/DX2                !
 ! D110  D(8,20,21,37)          -1.4166         estimate D2E/DX2                !
 ! D111  D(9,22,23,38)         -58.2479         estimate D2E/DX2                !
 ! D112  D(9,22,23,39)        -179.3887         estimate D2E/DX2                !
 ! D113  D(9,22,23,40)          59.5719         estimate D2E/DX2                !
 ! D114  D(10,22,23,38)        121.6049         estimate D2E/DX2                !
 ! D115  D(10,22,23,39)          0.464          estimate D2E/DX2                !
 ! D116  D(10,22,23,40)       -120.5753         estimate D2E/DX2                !
 ! D117  D(11,25,26,43)        177.2228         estimate D2E/DX2                !
 ! D118  D(11,25,26,44)         55.8264         estimate D2E/DX2                !
 ! D119  D(11,25,26,45)        -62.0726         estimate D2E/DX2                !
 ! D120  D(12,25,26,43)         -3.0565         estimate D2E/DX2                !
 ! D121  D(12,25,26,44)       -124.4529         estimate D2E/DX2                !
 ! D122  D(12,25,26,45)        117.648          estimate D2E/DX2                !
 ! D123  D(3,46,52,53)          56.9285         estimate D2E/DX2                !
 ! D124  D(3,46,52,54)         176.5434         estimate D2E/DX2                !
 ! D125  D(3,46,52,55)         -63.9066         estimate D2E/DX2                !
 ! D126  D(47,46,52,53)        -60.9567         estimate D2E/DX2                !
 ! D127  D(47,46,52,54)         58.6582         estimate D2E/DX2                !
 ! D128  D(47,46,52,55)        178.2081         estimate D2E/DX2                !
 ! D129  D(48,46,52,53)        179.8607         estimate D2E/DX2                !
 ! D130  D(48,46,52,54)        -60.5244         estimate D2E/DX2                !
 ! D131  D(48,46,52,55)         59.0256         estimate D2E/DX2                !
 ! D132  D(3,49,56,57)          61.345          estimate D2E/DX2                !
 ! D133  D(3,49,56,58)        -179.1725         estimate D2E/DX2                !
 ! D134  D(3,49,56,59)         -60.4382         estimate D2E/DX2                !
 ! D135  D(50,49,56,57)        -61.2458         estimate D2E/DX2                !
 ! D136  D(50,49,56,58)         58.2367         estimate D2E/DX2                !
 ! D137  D(50,49,56,59)        176.971          estimate D2E/DX2                !
 ! D138  D(51,49,56,57)       -178.2634         estimate D2E/DX2                !
 ! D139  D(51,49,56,58)        -58.7809         estimate D2E/DX2                !
 ! D140  D(51,49,56,59)         59.9534         estimate D2E/DX2                !
 ! D141  D(3,60,61,62)         -73.3117         estimate D2E/DX2                !
 ! D142  D(3,60,61,63)          45.4886         estimate D2E/DX2                !
 ! D143  D(3,60,61,64)         166.44           estimate D2E/DX2                !
 ! D144  D(60,61,64,65)         59.3114         estimate D2E/DX2                !
 ! D145  D(60,61,64,66)        178.7705         estimate D2E/DX2                !
 ! D146  D(60,61,64,67)        -61.5733         estimate D2E/DX2                !
 ! D147  D(62,61,64,65)        -59.6606         estimate D2E/DX2                !
 ! D148  D(62,61,64,66)         59.7985         estimate D2E/DX2                !
 ! D149  D(62,61,64,67)        179.4546         estimate D2E/DX2                !
 ! D150  D(63,61,64,65)        179.7524         estimate D2E/DX2                !
 ! D151  D(63,61,64,66)        -60.7885         estimate D2E/DX2                !
 ! D152  D(63,61,64,67)         58.8677         estimate D2E/DX2                !
 --------------------------------------------------------------------------------
 Trust Radius=3.00D-01 FncErr=1.00D-07 GrdErr=1.00D-06
 Number of steps in this run=    352 maximum allowed number of steps=    402.
 GradGradGradGradGradGradGradGradGradGradGradGradGradGradGradGradGradGrad

 Stoichiometry    C20H34AuO10PS
 Framework group  C1[X(C20H34AuO10PS)]
 Deg. of freedom   195
 Full point group                 C1      NOp   1
 Largest Abelian subgroup         C1      NOp   1
 Largest concise Abelian subgroup C1      NOp   1
                         Standard orientation:                         
 ---------------------------------------------------------------------
 Center     Atomic      Atomic             Coordinates (Angstroms)
 Number     Number       Type             X           Y           Z
 ---------------------------------------------------------------------
      1         79           0       -2.403109   -0.637742   -0.426138
      2         16           0       -0.380517   -1.440904   -1.274629
      3         15           0       -4.415950    0.108133    0.352089
      4          8           0        1.017926    0.639408   -0.432062
      5          8           0        2.104814   -2.796287    0.038343
      6          8           0        2.680318   -3.540650   -2.007871
      7          8           0        4.540719   -1.324601    0.181631
      8          8           0        4.840028   -2.156062    2.253619
      9          8           0        4.145340    1.300470    1.291079
     10          8           0        5.650532    1.963411   -0.247491
     11          8           0        2.292939    3.057911   -1.086486
     12          8           0        1.995287    5.243099   -0.709212
     13          6           0        0.855904   -0.740444   -0.158862
     14          6           0        2.207637   -1.435961   -0.359512
     15          6           0        3.266832   -0.782486    0.519121
     16          6           0        3.299167    0.721327    0.302302
     17          6           0        1.887250    1.290385    0.468957
     18          6           0        2.336192   -3.758445   -0.872252
     19          6           0        2.097592   -5.112731   -0.279739
     20          6           0        5.232047   -1.992016    1.124505
     21          6           0        6.532146   -2.488392    0.571729
     22          6           0        5.292511    1.890034    0.901551
     23          6           0        6.035070    2.430173    2.084303
     24          6           0        1.802510    2.779012    0.223158
     25          6           0        2.347011    4.346088   -1.439672
     26          6           0        2.895110    4.510837   -2.824110
     27          1           0        0.532349   -0.871292    0.883619
     28          1           0        2.496287   -1.380578   -1.413702
     29          1           0        3.059077   -1.000135    1.572210
     30          1           0        3.684571    0.957759   -0.692894
     31          1           0        1.556168    1.122326    1.507626
     32          1           0        2.447921   -5.884027   -0.964510
     33          1           0        1.023884   -5.238028   -0.106156
     34          1           0        2.600267   -5.201203    0.686410
     35          1           0        7.113809   -1.647841    0.182932
     36          1           0        6.339891   -3.168139   -0.263477
     37          1           0        7.092412   -3.004065    1.350448
     38          1           0        5.405847    3.146620    2.619998
     39          1           0        6.953919    2.912969    1.754493
     40          1           0        6.267390    1.615922    2.776744
     41          1           0        0.761290    3.105177    0.304164
     42          1           0        2.395627    3.320164    0.966379
     43          1           0        2.882189    5.563375   -3.104144
     44          1           0        2.303171    3.925436   -3.532951
     45          1           0        3.920208    4.129989   -2.859176
     46          6           0       -5.060756   -0.824329    1.778512
     47          1           0       -4.356545   -0.641304    2.597561
     48          1           0       -6.029734   -0.412699    2.080145
     49          6           0       -5.713698    0.054478   -0.932737
     50          1           0       -5.440241    0.839993   -1.647750
     51          1           0       -5.537860   -0.894164   -1.455375
     52          6           0       -5.171517   -2.320353    1.485178
     53          1           0       -4.205351   -2.736044    1.180707
     54          1           0       -5.502521   -2.852158    2.381743
     55          1           0       -5.894453   -2.528665    0.690192
     56          6           0       -7.177509    0.164776   -0.511462
     57          1           0       -7.400507    1.111201   -0.013248
     58          1           0       -7.815333    0.100071   -1.398484
     59          1           0       -7.469540   -0.647552    0.160311
     60          8           0       -4.228993    1.634808    0.843080
     61          6           0       -5.288409    2.468471    1.338368
     62          1           0       -5.921908    2.768545    0.496324
     63          1           0       -5.899695    1.908303    2.055077
     64          6           0       -4.666703    3.677412    1.996638
     65          1           0       -4.052998    4.234148    1.282357
     66          1           0       -5.456769    4.339905    2.363425
     67          1           0       -4.041291    3.380995    2.843766
 ---------------------------------------------------------------------
 Rotational constants (GHZ):      0.1249712      0.0503707      0.0403712
 General basis read from cards:  (5D, 7F)
 ======================================================================================================
                                       Pseudopotential Parameters
 ======================================================================================================
  Center     Atomic      Valence      Angular      Power
  Number     Number     Electrons     Momentum     of R      Exponent        Coefficient   SO-Coeffient
 ======================================================================================================
    1         79           19
                                      G and up 
                                                     1      622.6287956      -60.00000000    0.00000000
                                                     2      136.2843607     -555.52923120    0.00000000
                                                     2       33.1549781     -168.00197850    0.00000000
                                                     2        9.9894895      -63.03998750    0.00000000
                                                     2        3.0481312       -4.25166810    0.00000000
                                      S - G
                                                     0      194.7374304        3.00000000    0.00000000
                                                     1      351.5327447       38.60208800    0.00000000
                                                     2      122.3270402      864.83707270    0.00000000
                                                     2       32.0914617      374.99355200    0.00000000
                                                     2        5.2451812      289.79101000    0.00000000
                                                     2        4.4916223     -152.45327730    0.00000000
                                      P - G
                                                     0      420.6158801        2.00000000    0.00000000
                                                     1      109.4417815       73.88856250    0.00000000
                                                     2       34.1714280      326.67298720    0.00000000
                                                     2        5.9879750      126.58145910    0.00000000
                                      D - G
                                                     0      219.2666158        3.00000000    0.00000000
                                                     1      122.7297786       55.67931490    0.00000000
                                                     2       63.1063369      449.19873350    0.00000000
                                                     2       18.3684520      215.02690910    0.00000000
                                                     2        4.4972844       64.08409950    0.00000000
                                      F - G
                                                     0      108.5506037        4.00000000    0.00000000
                                                     1       56.4795527       51.80653350    0.00000000
                                                     2       29.2069159      231.21831130    0.00000000
                                                     2        9.5440543      119.00473860    0.00000000
                                                     2        2.8965118       15.34241880    0.00000000
    2         16
                                   No pseudopotential on this center.
    3         15
                                   No pseudopotential on this center.
    4          8
                                   No pseudopotential on this center.
    5          8
                                   No pseudopotential on this center.
    6          8
                                   No pseudopotential on this center.
    7          8
                                   No pseudopotential on this center.
    8          8
                                   No pseudopotential on this center.
    9          8
                                   No pseudopotential on this center.
   10          8
                                   No pseudopotential on this center.
   11          8
                                   No pseudopotential on this center.
   12          8
                                   No pseudopotential on this center.
   13          6
                                   No pseudopotential on this center.
   14          6
                                   No pseudopotential on this center.
   15          6
                                   No pseudopotential on this center.
   16          6
                                   No pseudopotential on this center.
   17          6
                                   No pseudopotential on this center.
   18          6
                                   No pseudopotential on this center.
   19          6
                                   No pseudopotential on this center.
   20          6
                                   No pseudopotential on this center.
   21          6
                                   No pseudopotential on this center.
   22          6
                                   No pseudopotential on this center.
   23          6
                                   No pseudopotential on this center.
   24          6
                                   No pseudopotential on this center.
   25          6
                                   No pseudopotential on this center.
   26          6
                                   No pseudopotential on this center.
   27          1
                                   No pseudopotential on this center.
   28          1
                                   No pseudopotential on this center.
   29          1
                                   No pseudopotential on this center.
   30          1
                                   No pseudopotential on this center.
   31          1
                                   No pseudopotential on this center.
   32          1
                                   No pseudopotential on this center.
   33          1
                                   No pseudopotential on this center.
   34          1
                                   No pseudopotential on this center.
   35          1
                                   No pseudopotential on this center.
   36          1
                                   No pseudopotential on this center.
   37          1
                                   No pseudopotential on this center.
   38          1
                                   No pseudopotential on this center.
   39          1
                                   No pseudopotential on this center.
   40          1
                                   No pseudopotential on this center.
   41          1
                                   No pseudopotential on this center.
   42          1
                                   No pseudopotential on this center.
   43          1
                                   No pseudopotential on this center.
   44          1
                                   No pseudopotential on this center.
   45          1
                                   No pseudopotential on this center.
   46          6
                                   No pseudopotential on this center.
   47          1
                                   No pseudopotential on this center.
   48          1
                                   No pseudopotential on this center.
   49          6
                                   No pseudopotential on this center.
   50          1
                                   No pseudopotential on this center.
   51          1
                                   No pseudopotential on this center.
   52          6
                                   No pseudopotential on this center.
   53          1
                                   No pseudopotential on this center.
   54          1
                                   No pseudopotential on this center.
   55          1
                                   No pseudopotential on this center.
   56          6
                                   No pseudopotential on this center.
   57          1
                                   No pseudopotential on this center.
   58          1
                                   No pseudopotential on this center.
   59          1
                                   No pseudopotential on this center.
   60          8
                                   No pseudopotential on this center.
   61          6
                                   No pseudopotential on this center.
   62          1
                                   No pseudopotential on this center.
   63          1
                                   No pseudopotential on this center.
   64          6
                                   No pseudopotential on this center.
   65          1
                                   No pseudopotential on this center.
   66          1
                                   No pseudopotential on this center.
   67          1
                                   No pseudopotential on this center.
 ======================================================================================================
 There are   604 symmetry adapted cartesian basis functions of A   symmetry.
 There are   566 symmetry adapted basis functions of A   symmetry.
   566 basis functions,  1128 primitive gaussians,   604 cartesian basis functions
   142 alpha electrons      142 beta electrons
       nuclear repulsion energy      4406.0142366956 Hartrees.
 NAtoms=   67 NActive=   67 NUniq=   67 SFac= 1.00D+00 NAtFMM=   60 NAOKFM=T Big=T
 Integral buffers will be    131072 words long.
 Raffenetti 2 integral format.
 Two-electron integral symmetry is turned on.
 One-electron integrals computed using PRISM.
   1 Symmetry operations used in ECPInt.
 ECPInt:  NShTT=   22578 NPrTT=  133063 LenC2=   15868 LenP2D=   48837.
 LDataN:  DoStor=T MaxTD1= 7 Len=  274
 NBasis=   566 RedAO= T EigKep=  1.78D-03  NBF=   566
 NBsUse=   566 1.00D-06 EigRej= -1.00D+00 NBFU=   566
 Defaulting to unpruned grid for atomic number  79.
 ExpMin= 2.79D-02 ExpMax= 2.19D+04 ExpMxC= 3.30D+03 IAcc=3 IRadAn=         5 AccDes= 0.00D+00
 Harris functional with IExCor=  402 and IRadAn=       5 diagonalized for initial guess.
 HarFok:  IExCor=  402 AccDes= 0.00D+00 IRadAn=         5 IDoV= 1 UseB2=F ITyADJ=14
 ICtDFT=  3500011 ScaDFX=  1.000000  1.000000  1.000000  1.000000
 Defaulting to unpruned grid for atomic number  79.
 Defaulting to unpruned grid for atomic number  79.
 Defaulting to unpruned grid for atomic number  79.
 Defaulting to unpruned grid for atomic number  79.
 Defaulting to unpruned grid for atomic number  79.
 Defaulting to unpruned grid for atomic number  79.
 Defaulting to unpruned grid for atomic number  79.
 Defaulting to unpruned grid for atomic number  79.
 FoFCou: FMM=F IPFlag=           0 FMFlag=      100000 FMFlg1=        2001
         NFxFlg=           0 DoJE=T BraDBF=F KetDBF=T FulRan=T
         wScrn=  0.000000 ICntrl=     500 IOpCl=  0 I1Cent=   200000004 NGrid=           0
         NMat0=    1 NMatS0=      1 NMatT0=    0 NMatD0=    1 NMtDS0=    0 NMtDT0=    0
 Petite list used in FoFCou.
 Requested convergence on RMS density matrix=1.00D-08 within 128 cycles.
 Requested convergence on MAX density matrix=1.00D-06.
 Requested convergence on             energy=1.00D-06.
 No special actions if energy rises.
 Defaulting to unpruned grid for atomic number  79.
 Defaulting to unpruned grid for atomic number  79.
 Defaulting to unpruned grid for atomic number  79.
 Defaulting to unpruned grid for atomic number  79.
 Defaulting to unpruned grid for atomic number  79.
 Defaulting to unpruned grid for atomic number  79.
 Defaulting to unpruned grid for atomic number  79.
 Defaulting to unpruned grid for atomic number  79.
 SCF Done:  E(RB3LYP) =  -2409.96500806     A.U. after   14 cycles
            NFock= 14  Conv=0.37D-08     -V/T= 2.0447

 **********************************************************************

            Population analysis using the SCF density.

 **********************************************************************

 Orbital symmetries:
       Occupied  (A) (A) (A) (A) (A) (A) (A) (A) (A) (A) (A) (A)
                 (A) (A) (A) (A) (A) (A) (A) (A) (A) (A) (A) (A)
                 (A) (A) (A) (A) (A) (A) (A) (A) (A) (A) (A) (A)
                 (A) (A) (A) (A) (A) (A) (A) (A) (A) (A) (A) (A)
                 (A) (A) (A) (A) (A) (A) (A) (A) (A) (A) (A) (A)
                 (A) (A) (A) (A) (A) (A) (A) (A) (A) (A) (A) (A)
                 (A) (A) (A) (A) (A) (A) (A) (A) (A) (A) (A) (A)
                 (A) (A) (A) (A) (A) (A) (A) (A) (A) (A) (A) (A)
                 (A) (A) (A) (A) (A) (A) (A) (A) (A) (A) (A) (A)
                 (A) (A) (A) (A) (A) (A) (A) (A) (A) (A) (A) (A)
                 (A) (A) (A) (A) (A) (A) (A) (A) (A) (A) (A) (A)
                 (A) (A) (A) (A) (A) (A) (A) (A) (A) (A)
       Virtual   (A) (A) (A) (A) (A) (A) (A) (A) (A) (A) (A) (A)
                 (A) (A) (A) (A) (A) (A) (A) (A) (A) (A) (A) (A)
                 (A) (A) (A) (A) (A) (A) (A) (A) (A) (A) (A) (A)
                 (A) (A) (A) (A) (A) (A) (A) (A) (A) (A) (A) (A)
                 (A) (A) (A) (A) (A) (A) (A) (A) (A) (A) (A) (A)
                 (A) (A) (A) (A) (A) (A) (A) (A) (A) (A) (A) (A)
                 (A) (A) (A) (A) (A) (A) (A) (A) (A) (A) (A) (A)
                 (A) (A) (A) (A) (A) (A) (A) (A) (A) (A) (A) (A)
                 (A) (A) (A) (A) (A) (A) (A) (A) (A) (A) (A) (A)
                 (A) (A) (A) (A) (A) (A) (A) (A) (A) (A) (A) (A)
                 (A) (A) (A) (A) (A) (A) (A) (A) (A) (A) (A) (A)
                 (A) (A) (A) (A) (A) (A) (A) (A) (A) (A) (A) (A)
                 (A) (A) (A) (A) (A) (A) (A) (A) (A) (A) (A) (A)
                 (A) (A) (A) (A) (A) (A) (A) (A) (A) (A) (A) (A)
                 (A) (A) (A) (A) (A) (A) (A) (A) (A) (A) (A) (A)
                 (A) (A) (A) (A) (A) (A) (A) (A) (A) (A) (A) (A)
                 (A) (A) (A) (A) (A) (A) (A) (A) (A) (A) (A) (A)
                 (A) (A) (A) (A) (A) (A) (A) (A) (A) (A) (A) (A)
                 (A) (A) (A) (A) (A) (A) (A) (A) (A) (A) (A) (A)
                 (A) (A) (A) (A) (A) (A) (A) (A) (A) (A) (A) (A)
                 (A) (A) (A) (A) (A) (A) (A) (A) (A) (A) (A) (A)
                 (A) (A) (A) (A) (A) (A) (A) (A) (A) (A) (A) (A)
                 (A) (A) (A) (A) (A) (A) (A) (A) (A) (A) (A) (A)
                 (A) (A) (A) (A) (A) (A) (A) (A) (A) (A) (A) (A)
                 (A) (A) (A) (A) (A) (A) (A) (A) (A) (A) (A) (A)
                 (A) (A) (A) (A) (A) (A) (A) (A) (A) (A) (A) (A)
                 (A) (A) (A) (A) (A) (A) (A) (A) (A) (A) (A) (A)
                 (A) (A) (A) (A) (A) (A) (A) (A) (A) (A) (A) (A)
                 (A) (A) (A) (A) (A) (A) (A) (A) (A) (A) (A) (A)
                 (A) (A) (A) (A) (A) (A) (A) (A) (A) (A) (A) (A)
                 (A) (A) (A) (A) (A) (A) (A) (A) (A) (A) (A) (A)
                 (A) (A) (A) (A) (A) (A) (A) (A) (A) (A) (A) (A)
                 (A) (A) (A) (A) (A) (A) (A) (A) (A) (A) (A) (A)
                 (A) (A) (A) (A) (A) (A) (A) (A) (A) (A) (A) (A)
                 (A) (A) (A) (A) (A) (A) (A) (A) (A) (A) (A) (A)
                 (A) (A) (A) (A)
 The electronic state is 1-A.
 Alpha  occ. eigenvalues --  -88.80647 -77.15770 -19.18918 -19.18601 -19.18023
 Alpha  occ. eigenvalues --  -19.17714 -19.17336 -19.14759 -19.12809 -19.12369
 Alpha  occ. eigenvalues --  -19.11814 -19.11364 -10.31105 -10.30646 -10.30024
 Alpha  occ. eigenvalues --  -10.29742 -10.26618 -10.24498 -10.23930 -10.23702
 Alpha  occ. eigenvalues --  -10.23665 -10.23176 -10.23164 -10.21732 -10.21583
 Alpha  occ. eigenvalues --  -10.20778 -10.20140 -10.19398 -10.18520 -10.17959
 Alpha  occ. eigenvalues --  -10.17426 -10.17299  -7.88346  -6.63226  -5.84755
 Alpha  occ. eigenvalues --   -5.84280  -5.83878  -4.79627  -4.79280  -4.79062
 Alpha  occ. eigenvalues --   -4.16544  -2.31222  -2.29097  -2.28923  -1.10999
 Alpha  occ. eigenvalues --   -1.10053  -1.09890  -1.09081  -1.06984  -1.04751
 Alpha  occ. eigenvalues --   -1.01652  -1.01039  -1.00327  -1.00092  -0.82573
 Alpha  occ. eigenvalues --   -0.81956  -0.80716  -0.79101  -0.78824  -0.76449
 Alpha  occ. eigenvalues --   -0.75608  -0.74276  -0.73416  -0.71113  -0.69710
 Alpha  occ. eigenvalues --   -0.68441  -0.66010  -0.65281  -0.64728  -0.61771
 Alpha  occ. eigenvalues --   -0.59418  -0.59089  -0.58789  -0.57075  -0.55208
 Alpha  occ. eigenvalues --   -0.54188  -0.52328  -0.51813  -0.51164  -0.50133
 Alpha  occ. eigenvalues --   -0.50028  -0.49294  -0.48416  -0.48238  -0.48176
 Alpha  occ. eigenvalues --   -0.47789  -0.47437  -0.46868  -0.46614  -0.46009
 Alpha  occ. eigenvalues --   -0.45771  -0.45504  -0.45129  -0.44915  -0.44901
 Alpha  occ. eigenvalues --   -0.43756  -0.43276  -0.43015  -0.42631  -0.42416
 Alpha  occ. eigenvalues --   -0.41535  -0.41046  -0.40876  -0.40739  -0.40337
 Alpha  occ. eigenvalues --   -0.40130  -0.39893  -0.39779  -0.39515  -0.39111
 Alpha  occ. eigenvalues --   -0.38992  -0.38685  -0.38448  -0.38060  -0.37497
 Alpha  occ. eigenvalues --   -0.36648  -0.36387  -0.35973  -0.35575  -0.35252
 Alpha  occ. eigenvalues --   -0.34748  -0.33943  -0.33602  -0.33003  -0.32752
 Alpha  occ. eigenvalues --   -0.32730  -0.31560  -0.31084  -0.30306  -0.29943
 Alpha  occ. eigenvalues --   -0.29876  -0.29820  -0.29124  -0.27361  -0.27029
 Alpha  occ. eigenvalues --   -0.26928  -0.26659  -0.25932  -0.25734  -0.25403
 Alpha  occ. eigenvalues --   -0.23447  -0.19756
 Alpha virt. eigenvalues --   -0.02368  -0.01379   0.01549   0.01606   0.02146
 Alpha virt. eigenvalues --    0.02619   0.02950   0.03385   0.03794   0.06079
 Alpha virt. eigenvalues --    0.06950   0.07871   0.08451   0.08892   0.09155
 Alpha virt. eigenvalues --    0.09691   0.10410   0.10802   0.11159   0.11647
 Alpha virt. eigenvalues --    0.12018   0.12394   0.12848   0.13198   0.13605
 Alpha virt. eigenvalues --    0.13888   0.14072   0.14257   0.14603   0.14698
 Alpha virt. eigenvalues --    0.15105   0.15487   0.15640   0.15867   0.16104
 Alpha virt. eigenvalues --    0.16178   0.16752   0.16845   0.17192   0.17589
 Alpha virt. eigenvalues --    0.17955   0.18094   0.18294   0.18330   0.18602
 Alpha virt. eigenvalues --    0.18708   0.18948   0.19330   0.19670   0.20179
 Alpha virt. eigenvalues --    0.20367   0.20870   0.21103   0.21669   0.22473
 Alpha virt. eigenvalues --    0.22940   0.23329   0.23769   0.24108   0.24309
 Alpha virt. eigenvalues --    0.24536   0.24755   0.26946   0.27121   0.27974
 Alpha virt. eigenvalues --    0.28881   0.29561   0.29866   0.30752   0.31145
 Alpha virt. eigenvalues --    0.31683   0.32153   0.33080   0.35758   0.36251
 Alpha virt. eigenvalues --    0.36635   0.37346   0.37539   0.38159   0.38673
 Alpha virt. eigenvalues --    0.39733   0.41056   0.42062   0.43362   0.44615
 Alpha virt. eigenvalues --    0.46087   0.46453   0.47427   0.48030   0.49955
 Alpha virt. eigenvalues --    0.50382   0.51405   0.52453   0.52983   0.53394
 Alpha virt. eigenvalues --    0.53639   0.54343   0.54967   0.55552   0.55912
 Alpha virt. eigenvalues --    0.56117   0.56376   0.56636   0.56906   0.57030
 Alpha virt. eigenvalues --    0.57408   0.57515   0.57879   0.58318   0.58980
 Alpha virt. eigenvalues --    0.59291   0.59705   0.60012   0.60222   0.60756
 Alpha virt. eigenvalues --    0.61037   0.61729   0.62076   0.63370   0.63460
 Alpha virt. eigenvalues --    0.63639   0.64515   0.65310   0.66015   0.66666
 Alpha virt. eigenvalues --    0.68004   0.68019   0.68161   0.68280   0.68873
 Alpha virt. eigenvalues --    0.69581   0.69873   0.70860   0.71062   0.73040
 Alpha virt. eigenvalues --    0.73425   0.74244   0.75341   0.75609   0.76454
 Alpha virt. eigenvalues --    0.77922   0.78401   0.79737   0.79933   0.80149
 Alpha virt. eigenvalues --    0.80574   0.80929   0.81717   0.82134   0.83207
 Alpha virt. eigenvalues --    0.83547   0.83993   0.84406   0.84891   0.84920
 Alpha virt. eigenvalues --    0.85589   0.85761   0.86172   0.86302   0.86429
 Alpha virt. eigenvalues --    0.86817   0.87135   0.87546   0.87687   0.87857
 Alpha virt. eigenvalues --    0.88046   0.88423   0.88866   0.89039   0.89716
 Alpha virt. eigenvalues --    0.89921   0.90747   0.90899   0.90972   0.91498
 Alpha virt. eigenvalues --    0.91555   0.92337   0.92723   0.93102   0.93945
 Alpha virt. eigenvalues --    0.94224   0.94677   0.94913   0.95180   0.95219
 Alpha virt. eigenvalues --    0.95499   0.96012   0.96319   0.96705   0.97042
 Alpha virt. eigenvalues --    0.97335   0.97685   0.98158   0.98982   0.99546
 Alpha virt. eigenvalues --    1.00189   1.00514   1.01028   1.01224   1.01392
 Alpha virt. eigenvalues --    1.02867   1.03669   1.04559   1.05021   1.07423
 Alpha virt. eigenvalues --    1.08031   1.08950   1.09489   1.11203   1.11399
 Alpha virt. eigenvalues --    1.11776   1.12689   1.13227   1.14210   1.14672
 Alpha virt. eigenvalues --    1.15030   1.16064   1.16638   1.18796   1.18982
 Alpha virt. eigenvalues --    1.19226   1.20356   1.22153   1.22650   1.23189
 Alpha virt. eigenvalues --    1.26039   1.28865   1.30209   1.31387   1.32911
 Alpha virt. eigenvalues --    1.35363   1.36168   1.38338   1.38499   1.39143
 Alpha virt. eigenvalues --    1.40578   1.40796   1.42698   1.42948   1.43376
 Alpha virt. eigenvalues --    1.44634   1.46931   1.47919   1.48561   1.49164
 Alpha virt. eigenvalues --    1.49715   1.51382   1.52297   1.53881   1.54602
 Alpha virt. eigenvalues --    1.55130   1.56086   1.57219   1.58017   1.58345
 Alpha virt. eigenvalues --    1.58939   1.60900   1.61985   1.62650   1.64073
 Alpha virt. eigenvalues --    1.64232   1.66620   1.67131   1.67911   1.67978
 Alpha virt. eigenvalues --    1.69763   1.70003   1.72298   1.74127   1.74173
 Alpha virt. eigenvalues --    1.75589   1.77480   1.77946   1.78590   1.78984
 Alpha virt. eigenvalues --    1.79208   1.80140   1.80374   1.80962   1.81278
 Alpha virt. eigenvalues --    1.81444   1.81594   1.82197   1.82732   1.83468
 Alpha virt. eigenvalues --    1.83668   1.84219   1.85276   1.85681   1.85965
 Alpha virt. eigenvalues --    1.87616   1.88001   1.88887   1.89200   1.89792
 Alpha virt. eigenvalues --    1.89964   1.90858   1.91062   1.93772   1.93974
 Alpha virt. eigenvalues --    1.94234   1.95243   1.95703   1.95988   1.96138
 Alpha virt. eigenvalues --    1.96596   1.97151   1.97627   1.98048   1.99145
 Alpha virt. eigenvalues --    1.99544   1.99992   2.00096   2.00517   2.00730
 Alpha virt. eigenvalues --    2.00968   2.01043   2.01189   2.01570   2.01800
 Alpha virt. eigenvalues --    2.02402   2.02772   2.03076   2.03280   2.04595
 Alpha virt. eigenvalues --    2.04848   2.05187   2.05918   2.07425   2.09175
 Alpha virt. eigenvalues --    2.09672   2.10116   2.11120   2.11677   2.11832
 Alpha virt. eigenvalues --    2.12804   2.13645   2.13949   2.14504   2.15168
 Alpha virt. eigenvalues --    2.16880   2.17621   2.18414   2.18599   2.19124
 Alpha virt. eigenvalues --    2.20031   2.20933   2.21580   2.21879   2.22695
 Alpha virt. eigenvalues --    2.23527   2.23813   2.23954   2.24996   2.25406
 Alpha virt. eigenvalues --    2.25642   2.26436   2.27818   2.28192   2.29407
 Alpha virt. eigenvalues --    2.30171   2.30774   2.31481   2.32231   2.32448
 Alpha virt. eigenvalues --    2.33116   2.33785   2.34799   2.37444   2.38141
 Alpha virt. eigenvalues --    2.40548   2.41169   2.41722   2.42421   2.44757
 Alpha virt. eigenvalues --    2.45899   2.45958   2.47054   2.47442   2.47902
 Alpha virt. eigenvalues --    2.53158   2.56574   2.57848   2.58106   2.59176
 Alpha virt. eigenvalues --    2.60297   2.61893   2.63955   2.64567   2.67375
 Alpha virt. eigenvalues --    2.68231   2.69207   2.70160   2.70541   2.71669
 Alpha virt. eigenvalues --    2.71973   2.72888   2.77602   2.79657   2.80251
 Alpha virt. eigenvalues --    2.80599   2.82212   2.83576   2.86722   2.88172
 Alpha virt. eigenvalues --    2.88713   2.96795   2.97921   2.98877   2.99845
 Alpha virt. eigenvalues --    3.00490   3.01584   3.07248   3.08334   3.12483
 Alpha virt. eigenvalues --    3.13297   3.18381   3.18925   3.21241   3.22272
 Alpha virt. eigenvalues --   15.59291  15.59660  15.69462  43.15412
          Condensed to atoms (all electrons):
 Mulliken charges:
               1
     1  Au  -0.131516
     2  S   -0.133563
     3  P    0.695504
     4  O   -0.454383
     5  O   -0.453805
     6  O   -0.424946
     7  O   -0.453006
     8  O   -0.428706
     9  O   -0.466871
    10  O   -0.421338
    11  O   -0.430979
    12  O   -0.443867
    13  C   -0.027866
    14  C    0.097668
    15  C    0.079493
    16  C    0.098064
    17  C    0.098642
    18  C    0.586281
    19  C   -0.538582
    20  C    0.561812
    21  C   -0.534852
    22  C    0.564877
    23  C   -0.533894
    24  C   -0.046017
    25  C    0.571722
    26  C   -0.533614
    27  H    0.160856
    28  H    0.202927
    29  H    0.178763
    30  H    0.202680
    31  H    0.127848
    32  H    0.177929
    33  H    0.193356
    34  H    0.179153
    35  H    0.188453
    36  H    0.191181
    37  H    0.178464
    38  H    0.182444
    39  H    0.183536
    40  H    0.189028
    41  H    0.175261
    42  H    0.159613
    43  H    0.177385
    44  H    0.186793
    45  H    0.193446
    46  C   -0.477109
    47  H    0.198406
    48  H    0.171294
    49  C   -0.490410
    50  H    0.204591
    51  H    0.208565
    52  C   -0.484707
    53  H    0.214699
    54  H    0.168169
    55  H    0.160753
    56  C   -0.462701
    57  H    0.158330
    58  H    0.170885
    59  H    0.162320
    60  O   -0.525501
    61  C   -0.041362
    62  H    0.152422
    63  H    0.141262
    64  C   -0.457920
    65  H    0.179586
    66  H    0.153411
    67  H    0.169641
 Sum of Mulliken charges =   0.00000
 Mulliken charges with hydrogens summed into heavy atoms:
               1
     1  Au  -0.131516
     2  S   -0.133563
     3  P    0.695504
     4  O   -0.454383
     5  O   -0.453805
     6  O   -0.424946
     7  O   -0.453006
     8  O   -0.428706
     9  O   -0.466871
    10  O   -0.421338
    11  O   -0.430979
    12  O   -0.443867
    13  C    0.132990
    14  C    0.300595
    15  C    0.258256
    16  C    0.300743
    17  C    0.226490
    18  C    0.586281
    19  C    0.011856
    20  C    0.561812
    21  C    0.023247
    22  C    0.564877
    23  C    0.021115
    24  C    0.288856
    25  C    0.571722
    26  C    0.024010
    46  C   -0.107408
    49  C   -0.077254
    52  C    0.058914
    56  C    0.028835
    60  O   -0.525501
    61  C    0.252323
    64  C    0.044718
 Electronic spatial extent (au):  <R**2>=          24614.0911
 Charge=              0.0000 electrons
 Dipole moment (field-independent basis, Debye):
    X=             -9.8631    Y=              1.0687    Z=              4.9468  Tot=             11.0857
 Quadrupole moment (field-independent basis, Debye-Ang):
   XX=           -161.2301   YY=           -232.8137   ZZ=           -230.4875
   XY=             -5.6589   XZ=             -2.3986   YZ=             -2.1413
 Traceless Quadrupole moment (field-independent basis, Debye-Ang):
   XX=             46.9470   YY=            -24.6366   ZZ=            -22.3104
   XY=             -5.6589   XZ=             -2.3986   YZ=             -2.1413
 Octapole moment (field-independent basis, Debye-Ang**2):
  XXX=           -497.5574  YYY=           -189.3462  ZZZ=            -49.1764  XYY=           -107.9521
  XXY=              9.3907  XXZ=             55.8251  XZZ=           -122.2625  YZZ=             56.4639
  YYZ=              0.3198  XYZ=              4.9404
 Hexadecapole moment (field-independent basis, Debye-Ang**3):
 XXXX=         -18935.3548 YYYY=          -8582.1740 ZZZZ=          -2226.8992 XXXY=           -188.8188
 XXXZ=            298.3486 YYYX=           -160.8253 YYYZ=            -56.4029 ZZZX=             18.0048
 ZZZY=            -49.8705 XXYY=          -4633.1548 XXZZ=          -3902.5386 YYZZ=          -1700.2912
 XXYZ=            196.1231 YYXZ=            -16.4366 ZZXY=            279.1434
 N-N= 4.406014236696D+03 E-N=-1.444127508084D+04  KE= 2.306818883607D+03
   1 Symmetry operations used in ECPInt.
 ECPInt:  NShTT=   22578 NPrTT=  133063 LenC2=   15868 LenP2D=   48837.
 LDataN:  DoStor=T MaxTD1= 8 Len=  415
 Calling FoFJK, ICntrl=      2127 FMM=T ISym2X=0 I1Cent= 0 IOpClX= 0 NMat=1 NMatS=1 NMatT=0.
 Defaulting to unpruned grid for atomic number  79.
 Defaulting to unpruned grid for atomic number  79.
 Defaulting to unpruned grid for atomic number  79.
 Defaulting to unpruned grid for atomic number  79.
 Defaulting to unpruned grid for atomic number  79.
 Defaulting to unpruned grid for atomic number  79.
 Defaulting to unpruned grid for atomic number  79.
 Defaulting to unpruned grid for atomic number  79.
 ***** Axes restored to original set *****
 -------------------------------------------------------------------
 Center     Atomic                   Forces (Hartrees/Bohr)
 Number     Number              X              Y              Z
 -------------------------------------------------------------------
      1       79           0.004505274   -0.001684115   -0.001207274
      2       16          -0.007784771   -0.004035761   -0.005971207
      3       15           0.013013528   -0.009877184   -0.006996685
      4        8          -0.003620137    0.005770519   -0.003591216
      5        8          -0.003048334    0.001131729    0.013734760
      6        8           0.002868641   -0.000880374   -0.007001594
      7        8           0.002340939    0.002914887   -0.011110277
      8        8          -0.001041797   -0.002350533    0.009952498
      9        8          -0.004882260   -0.000433053    0.012546760
     10        8           0.004682347    0.001966994   -0.007965781
     11        8           0.002358939   -0.012767488   -0.002669076
     12        8          -0.002369928    0.007687965    0.004910261
     13        6          -0.000910433   -0.002671983    0.004981626
     14        6           0.000938394    0.002283579   -0.006008998
     15        6          -0.004135430    0.000415850    0.004655876
     16        6          -0.000928856   -0.001591331   -0.007560178
     17        6           0.001134619    0.001520300    0.002325617
     18        6           0.002437717   -0.001830740   -0.008456350
     19        6          -0.001704799   -0.004439873    0.003127809
     20        6          -0.000486726   -0.001334695    0.004266906
     21        6           0.004397634   -0.001477958   -0.002794063
     22        6           0.003304153    0.001091232   -0.004989114
     23        6           0.002181082    0.001361423    0.004761628
     24        6          -0.002929291    0.002584574    0.003854819
     25        6          -0.000507285    0.006960918   -0.000145208
     26        6           0.002276514   -0.000596634   -0.004879411
     27        1           0.000977765    0.000062023    0.000972842
     28        1          -0.000289238   -0.000510137    0.000803982
     29        1           0.000838405   -0.000321200   -0.000621247
     30        1          -0.000583345    0.000222603    0.001265413
     31        1           0.000054059   -0.000587068    0.001489880
     32        1           0.000265177   -0.000401519   -0.000704130
     33        1          -0.000739572   -0.000728200    0.000384227
     34        1           0.000225612   -0.000661771    0.001136558
     35        1           0.000935223    0.000188837   -0.000980009
     36        1           0.000697584   -0.000386709   -0.001084808
     37        1           0.000284381   -0.000409547    0.000749185
     38        1           0.000199563    0.000775076    0.001252085
     39        1           0.000563717    0.000441434   -0.000319421
     40        1           0.000374370   -0.000175360    0.001302101
     41        1           0.000148285    0.000593332    0.000085135
     42        1          -0.000488475    0.000605646    0.000030615
     43        1          -0.000160495    0.000837808    0.000085004
     44        1           0.000004778   -0.000526240   -0.001149355
     45        1           0.000886462   -0.000499778   -0.000709669
     46        6          -0.003501420    0.000986262    0.005184802
     47        1           0.000016364   -0.000465149    0.000789682
     48        1          -0.000971326   -0.000749336    0.001825995
     49        6          -0.002048655   -0.000605873   -0.004533583
     50        1          -0.000584257   -0.000016382   -0.000819413
     51        1          -0.000782828    0.000036447   -0.001042667
     52        6          -0.000188354   -0.003655049    0.000855220
     53        1          -0.000077825   -0.000224657   -0.000029665
     54        1          -0.000321245   -0.001022623    0.000346736
     55        1          -0.000395019   -0.000486022   -0.000460975
     56        6          -0.003661919   -0.000109999   -0.001248092
     57        1          -0.000480240    0.000608418    0.000252063
     58        1          -0.001400493    0.000128108   -0.000065278
     59        1          -0.000475222   -0.000356091    0.000390313
     60        8           0.002227872    0.012702628    0.004182988
     61        6          -0.002800659    0.000575357    0.000152553
     62        1          -0.000980333    0.000172091   -0.000088775
     63        1          -0.001222527    0.000034447    0.000356407
     64        6           0.000556463    0.003277358    0.001518159
     65        1           0.000558601   -0.000231130    0.000167784
     66        1          -0.000353841    0.001098932    0.000613983
     67        1           0.000602874    0.000064785   -0.000108756
 -------------------------------------------------------------------
 Cartesian Forces:  Max     0.013734760 RMS     0.003465035

 GradGradGradGradGradGradGradGradGradGradGradGradGradGradGradGradGradGrad
 Berny optimization.
 FormGI is forming the generalized inverse of G from B-inverse, IUseBI=4.
 GSVD:  received Info=                   1 from GESDD.
 Internal  Forces:  Max     0.018619684 RMS     0.002935348
 Search for a local minimum.
 Step number   1 out of a maximum of  352
 All quantities printed in internal units (Hartrees-Bohrs-Radians)
 Mixed Optimization -- RFO/linear search
 Second derivative matrix not updated -- first step.
 ITU=  0
     Eigenvalues ---    0.00230   0.00230   0.00230   0.00281   0.00389
     Eigenvalues ---    0.00406   0.00618   0.00628   0.00669   0.00710
     Eigenvalues ---    0.00791   0.00800   0.00801   0.00801   0.00808
     Eigenvalues ---    0.00872   0.01184   0.01188   0.01194   0.01205
     Eigenvalues ---    0.01213   0.01348   0.01361   0.01368   0.01413
     Eigenvalues ---    0.01540   0.02388   0.02403   0.02422   0.02528
     Eigenvalues ---    0.03036   0.03165   0.03220   0.03376   0.03802
     Eigenvalues ---    0.04468   0.04720   0.04760   0.04982   0.05014
     Eigenvalues ---    0.05023   0.05209   0.05317   0.05375   0.05420
     Eigenvalues ---    0.05436   0.05586   0.05627   0.05637   0.05685
     Eigenvalues ---    0.05733   0.05793   0.05898   0.05904   0.06021
     Eigenvalues ---    0.06105   0.06753   0.07029   0.07209   0.07367
     Eigenvalues ---    0.07411   0.07425   0.07428   0.07428   0.07562
     Eigenvalues ---    0.07571   0.07579   0.07635   0.07983   0.08314
     Eigenvalues ---    0.08390   0.09022   0.09558   0.10945   0.11210
     Eigenvalues ---    0.11224   0.11423   0.12185   0.12971   0.13630
     Eigenvalues ---    0.13691   0.14051   0.16000   0.16000   0.16000
     Eigenvalues ---    0.16000   0.16000   0.16000   0.16000   0.16000
     Eigenvalues ---    0.16000   0.16000   0.16000   0.16000   0.16000
     Eigenvalues ---    0.16000   0.16000   0.16000   0.16000   0.16000
     Eigenvalues ---    0.16000   0.16000   0.16000   0.16298   0.16657
     Eigenvalues ---    0.17067   0.18540   0.18845   0.19189   0.19257
     Eigenvalues ---    0.19918   0.21795   0.21926   0.21990   0.21998
     Eigenvalues ---    0.22019   0.24103   0.24452   0.25000   0.25000
     Eigenvalues ---    0.25000   0.25000   0.25000   0.25000   0.25000
     Eigenvalues ---    0.25000   0.25000   0.25000   0.25000   0.25000
     Eigenvalues ---    0.25000   0.25000   0.25593   0.27311   0.29065
     Eigenvalues ---    0.29229   0.29477   0.29560   0.29682   0.31234
     Eigenvalues ---    0.31308   0.32580   0.32652   0.32656   0.32657
     Eigenvalues ---    0.33348   0.33754   0.33986   0.34034   0.34133
     Eigenvalues ---    0.34170   0.34178   0.34215   0.34225   0.34244
     Eigenvalues ---    0.34259   0.34292   0.34304   0.34310   0.34313
     Eigenvalues ---    0.34341   0.34342   0.34345   0.34357   0.34365
     Eigenvalues ---    0.34367   0.34374   0.34375   0.34387   0.34388
     Eigenvalues ---    0.34397   0.34422   0.34458   0.34505   0.34520
     Eigenvalues ---    0.34896   0.34902   0.34913   0.34916   0.40111
     Eigenvalues ---    0.41309   0.41570   0.41719   0.41795   0.41996
     Eigenvalues ---    0.42304   0.48505   0.55592   0.55827   0.56144
     Eigenvalues ---    0.57926   1.00383   1.01654   1.01655   1.01981
 RFO step:  Lambda=-8.08563945D-03 EMin= 2.30000000D-03
 Linear search not attempted -- first point.
 Iteration  1 RMS(Cart)=  0.14019419 RMS(Int)=  0.00199791
 Iteration  2 RMS(Cart)=  0.01205815 RMS(Int)=  0.00009574
 Iteration  3 RMS(Cart)=  0.00005930 RMS(Int)=  0.00009462
 Iteration  4 RMS(Cart)=  0.00000002 RMS(Int)=  0.00009462
[...]
 827,0.00009076,-0.00000972,0.00001107,0.00000236,0.00016746,0.00005349
 ,-0.00004927,0.00001524,0.00014654,0.00006405,-0.00001272,0.,-0.000030
 59,0.00005029,-0.00002371,0.00003090,0.00012092,0.00000819,-0.00008144
 ,-0.00001351,-0.00004867,-0.00000243,0.00000886,0.00002815,0.00000758,
 -0.00000791,-0.00000593,0.00000149,-0.00006730,0.00010424,0.00001444,0
 .00006219,-0.00008302,0.00001680,0.00002898,-0.00004801,-0.00003605,0.
 00001735,0.00000230,0.00000139,0.00063556,0.00245679,0.00107205,-0.019
 63032,-0.01188747,0.01056022,0.00102388,0.00083987,-0.00005718,-0.0018
 3244,-0.00230830,-0.00342841,-0.08675317,-0.09592179,0.05212829,0.0987
 1133,0.10082375,0.00002994,0.00005082,0.00000244,-0.00002641,-0.000015
 09,-0.00000950,-0.00029806,0.00001551,0.00005754,-0.00001886,-0.000058
 76,-0.00002635,0.00000210,-0.00001986,-0.00000548,0.00000078,-0.000004
 89,-0.00000473,0.00001174,-0.00001806,-0.00000106,0.00000312,-0.000007
 26,0.00000227,0.00000683,-0.00000866,-0.00001098,0.00000498,-0.0000018
 2,-0.00001377,0.00001878,0.00000975,-0.00006399,0.00001501,-0.00001230
 ,-0.00004715,0.00001080,0.00005130,0.00001457,0.00000093,0.00000418,-0
 .00000319,-0.00000193,0.00001544,0.00000477,-0.00000756,0.00000063,-0.
 00000063,0.00002036,0.00003780,0.00003252,-0.00000475,0.00001291,0.000
 00855,0.00000106,-0.00000155,0.00000052,-0.00001168,0.00001263,-0.0000
 0515,0.00000179,-0.00000043,-0.00000070,-0.00001133,-0.00000024,0.0000
 1796,-0.00000058,0.00000021,-0.00000122,-0.00003962,-0.00000979,0.0000
 5281,-0.00000609,0.00000074,0.00006057,0.00000617,0.00000476,-0.000005
 65,-0.00000173,-0.00000266,-0.00000391,0.00000098,-0.00000089,0.,-0.00
 000087,0.00000082,-0.00000147,0.00000260,-0.00000022,-0.00000042,-0.00
 000601,0.00000873,-0.00001228,0.00000026,-0.00000068,-0.00000009,-0.00
 000021,0.00000001,0.00000017,0.00000007,0.00000050,-0.00000037,-0.0000
 0027,0.00000027,0.00000070,0.00000010,-0.00000007,-0.00000007,0.000000
 71,-0.00000002,0.00000010,-0.00000280,-0.00000197,0.00000151,0.0000011
 6,-0.00000030,-0.00000135,-0.00000218,0.00000138,0.00000029,0.00002838
 ,0.00001255,0.00003805,-0.00002772,-0.00000168,0.00000122,0.,0.0000011
 8,-0.00000135,-0.00000002,-0.00000089,-0.00000446,-0.00000126,0.000000
 58,-0.00000138,-0.00011408,-0.00005697,-0.00000666,0.00002261,-0.00002
 404,0.00001023,0.00012383,0.00003243,-0.00005004,-0.00003111,0.0000407
 6,0.00004923,0.00000421,-0.00000938,-0.00002675,0.00002439,-0.00000173
 ,0.00000400,0.00009120,-0.00000295,0.00000270,-0.00000817,-0.00002884,
 -0.00000661,-0.00000114,-0.00000061,0.00000064,-0.00000297,0.00000534,
 0.00000189,-0.00002205,0.00006013,-0.00004107,0.00002212,-0.00006189,0
 .00003681,0.00000729,-0.00003406,-0.00002822,0.00001276,0.00001385,0.0
 0000775,0.00029192,0.00216836,0.00085465,-0.01946215,-0.01054684,0.010
 56158,0.00023376,0.00075948,0.00136990,-0.00175488,-0.00395191,-0.0020
 9977,0.09827238,0.05299092,-0.10837031,-0.10456885,-0.05478888,0.11340
 930,-0.00009035,-0.00017028,-0.00005310,0.00004986,0.00004520,0.000032
 05,0.00071978,-0.00059294,-0.00041011,-0.00000682,0.00007004,0.0000231
 2,-0.00001331,0.00003161,0.00000852,-0.00000655,0.00000722,0.00001016,
 -0.00002836,0.00002697,-0.00000068,-0.00000893,0.00000947,-0.00000618,
 -0.00003561,-0.00001052,0.00000748,-0.00001743,-0.00000621,0.00000952,
 -0.00008931,-0.00006577,0.00006406,-0.00003627,-0.00004194,-0.00000518
 ,0.00000857,-0.00008198,-0.00003369,0.00001030,-0.00000016,0.00001115,
 0.00000902,-0.00002172,-0.00000728,0.00002449,0.00001448,0.00000953,-0
 .00001092,-0.00003758,-0.00002416,0.00001383,-0.00002302,-0.00001781,-
 0.00000052,0.00000265,-0.00000058,0.00002502,-0.00002099,0.00001164,-0
 .00000310,0.00000148,0.00000140,0.00004044,0.00002518,-0.00001492,-0.0
 0000188,-0.00000562,-0.00000198,0.00010327,0.00001151,-0.00006349,0.00
 008449,0.00010109,-0.00001795,-0.00000628,-0.00000382,0.00000748,0.000
 00234,0.00000302,0.00000369,-0.00000160,0.00000072,-0.00000042,0.00000
 141,-0.00000026,0.00000232,-0.00000142,0.00000042,-0.00000151,0.000006
 43,-0.00000707,0.00001125,-0.00000041,0.00000121,0.00000047,-0.0000000
 5,-0.00000063,-0.00000022,0.00000042,-0.00000056,0.00000006,0.00000050
 ,-0.00000046,-0.00000036,0.00000031,-0.00000010,-0.00000030,-0.0000013
 7,0.00000057,-0.00000020,0.00000271,0.00000238,0.00000109,-0.00000218,
 0.00000025,0.00000070,0.00000096,0.00000066,-0.00000004,-0.00001372,-0
 .00000916,-0.00001156,0.00000517,0.00001087,0.00000227,-0.00000177,-0.
 00000328,0.00000336,0.00000159,0.00000023,-0.00000215,0.00000029,-0.00
 000135,0.00000092,0.00002985,0.00006591,-0.00000233,-0.00000691,-0.000
 01553,0.00001036,-0.00004558,-0.00001176,0.00002278,0.00001124,-0.0000
 2992,-0.00001303,-0.00000510,-0.00000067,-0.00000898,-0.00002380,0.000
 02275,-0.00000728,-0.00001842,-0.00000668,0.00001164,-0.00000181,0.000
 01581,0.,-0.00000485,0.00000060,-0.00000019,0.00000433,0.00000354,0.00
 000179,0.00002428,-0.00002293,-0.00000044,-0.00003644,0.00003052,-0.00
 000814,-0.00000520,0.00001936,0.00001577,-0.00000143,0.00000237,0.0000
 0085,0.00020376,-0.00356967,-0.00244563,0.00980468,-0.00985261,-0.0020
 7503,0.00047886,0.00064341,0.00041230,0.00038457,0.00057366,0.00071380
 ,-0.16507491,0.12568841,0.03970532,-0.01558542,0.01928309,0.00449991,0
 .17565682,-0.00017982,-0.00018344,-0.00005124,0.00012523,0.00002595,0.
 00002585,0.00071764,0.00112734,0.00001859,0.00006033,0.00006737,0.0000
 1615,0.00003999,-0.00003705,-0.00000905,0.00002093,-0.00001399,-0.0000
 1764,0.00005473,-0.00001314,0.00000777,0.00001403,-0.00000872,0.000012
 01,0.00004585,0.00003501,-0.00000107,0.00001261,0.00001244,-0.00001093
 ,0.00001506,0.00003774,-0.00001254,0.00000781,0.00002153,0.00000917,-0
 .00003464,-0.00010312,-0.00005883,-0.00000232,0.00004755,0.00001399,-0
 .00002298,-0.00002025,-0.00000009,-0.00001873,-0.00001272,-0.00000845,
 -0.00004571,-0.00004042,-0.00002352,-0.00003951,0.00005254,0.00003043,
 -0.00000080,-0.00000532,0.00000207,-0.00003709,0.00002920,-0.00001893,
 0.00000286,-0.00000372,-0.00000300,-0.00003506,-0.00003345,0.00001929,
 0.00000265,0.00000547,0.00000102,0.00001256,-0.00001083,0.00001504,-0.
 00002376,-0.00004116,-0.00000362,0.00000185,0.00000128,-0.00000196,0.0
 0000300,0.00001128,0.00000639,-0.00000629,0.00000032,0.00000511,0.0000
 0118,0.00000351,-0.00000074,-0.00000053,-0.00000190,0.00000268,0.00000
 253,0.00000308,0.00000261,0.00000079,-0.00000214,-0.00000089,-0.000000
 57,0.00000256,-0.00000196,0.00000021,0.00000016,0.00000020,-0.00000030
 ,0.00000057,0.00000019,-0.00000123,0.00000004,0.00000092,0.00000189,-0
 .00000089,0.00000033,0.00000016,-0.00000018,0.00000003,0.00000163,0.00
 000043,0.00000024,-0.00000028,-0.00000105,-0.00000047,0.00000015,-0.00
 001372,-0.00000499,0.00000111,0.00000259,-0.00000232,0.00000105,0.0000
 0179,-0.00000043,0.00000027,-0.00000183,0.00000056,-0.00000109,-0.0000
 0088,0.00000063,0.00004928,-0.00011474,-0.00008556,0.00000872,0.000018
 47,-0.00001520,-0.00004742,0.00000561,0.00001047,0.00001659,-0.0003242
 5,-0.00010586,0.00000008,0.00000683,0.00003724,-0.00010900,0.00004661,
 -0.00008931,-0.00006349,0.00002465,0.00008478,0.00000156,0.00002160,-0
 .00000523,-0.00001764,-0.00004342,-0.00000310,0.00000366,-0.00000351,-
 0.00001286,0.00004437,-0.00003815,-0.00004643,-0.00001204,0.00002812,0
 .00000687,-0.00003625,0.00001992,0.00000141,-0.00000693,-0.00000417,0.
 00000850,-0.00197212,-0.00514000,-0.00410953,0.01667365,-0.01369104,-0
 .00134676,-0.00014381,0.00077019,-0.00017376,-0.00038622,0.00038028,0.
 00076420,0.12408308,-0.18566212,-0.04465694,-0.00933802,0.01230818,0.0
 0315534,-0.13760015,0.20022799,-0.00015172,-0.00015862,-0.00006273,0.0
 0009758,0.00002587,0.00003563,0.00053938,0.00011667,0.00022401,0.00003
 943,0.00004923,0.00002147,0.00002380,-0.00001722,-0.00000418,0.0000121
 6,-0.00000675,-0.00001001,0.00003109,-0.00000434,0.00000529,0.00000711
 ,-0.00000345,0.00000666,0.00002656,0.00002202,-0.00000036,0.00000592,0
 .00000817,-0.00000749,0.00001699,0.00003007,-0.00000886,0.00000586,0.0
 0001990,0.00000614,-0.00001593,-0.00007964,-0.00006010,0.00000178,0.00
 003175,0.00001545,-0.00001118,-0.00001609,-0.00000355,-0.00000983,-0.0
 0001250,0.00000020,-0.00002287,-0.00002218,-0.00003674,-0.00002282,0.0
 0002775,0.00001697,-0.00000065,-0.00000256,0.00000093,-0.00001899,0.00
 001457,-0.00001041,0.00000140,-0.00000231,-0.00000148,-0.00001923,-0.0
 0001975,0.00001283,0.00000149,0.00000285,0.00000019,-0.00000786,-0.000
 00770,0.00001501,-0.00002307,-0.00003954,0.00000129,0.00000108,0.00000
 147,-0.00000154,0.00000431,0.00000602,0.00000716,-0.00000513,0.0000006
 2,0.00000340,0.00000146,0.00000200,0.00000010,-0.00000178,-0.00000071,
 0.00000207,0.00000477,-0.00000136,0.00000783,0.00000038,-0.00000117,-0
 .00000029,-0.00000035,0.00000137,-0.00000138,0.00000030,-0.00000016,0.
 00000013,-0.00000006,0.00000033,0.00000012,-0.00000073,-0.00000010,0.0
 0000064,0.00000095,-0.00000046,0.00000007,0.00000044,0.00000010,0.0000
 0025,0.00000093,0.00000016,0.00000054,0.00000024,-0.00000049,-0.000000
 45,-0.00000375,-0.00000006,-0.00001116,0.00000535,0.00000168,-0.000002
 64,0.00000228,0.00000155,-0.00000060,0.00000025,-0.00000253,0.00000016
 ,-0.00000084,-0.00000005,0.00000026,0.00000262,-0.00017351,-0.00016835
 ,0.00000393,-0.00001495,0.00000673,-0.00001973,0.00000869,0.00001429,0
 .00002825,-0.00011432,-0.00003881,0.00000386,0.00000702,0.00000387,-0.
 00005345,0.00004060,-0.00003647,-0.00005653,-0.00000683,0.00012889,0.0
 0000264,0.00001777,-0.00000699,-0.00001910,-0.00004056,-0.00000965,0.0
 0000313,0.00000567,-0.00000801,0.00003206,-0.00003148,-0.00004005,-0.0
 0003652,0.00001118,0.00001958,-0.00002725,0.00001375,-0.00000057,-0.00
 000134,0.00001701,0.00000998,-0.00147642,-0.00530128,-0.00250542,0.015
 49847,-0.01084017,-0.00398706,0.00014247,0.00093127,0.00018747,-0.0001
 6373,0.00025527,0.00056765,0.03854072,-0.04401351,-0.06357832,0.008867
 43,-0.01143665,-0.00406044,-0.04308184,0.05028743,0.06435360,-0.000032
 73,-0.00003303,0.00000751,0.00001867,-0.00000245,-0.00000603,0.0001113
 0,0.00044499,0.00003778,0.00001841,-0.00001588,-0.00001636,0.00001861,
 -0.00003030,-0.00000713,0.00000949,-0.00000957,-0.00000988,0.00003151,
 -0.00001792,0.00000223,0.00000853,-0.00000861,0.00000666,0.00003066,0.
 00001484,-0.00000764,0.00001042,0.00000736,-0.00001385,0.00003451,0.00
 004362,-0.00004900,0.00001226,0.00002182,-0.00000590,-0.00001073,0.000
 00557,0.00000178,-0.00000401,0.00001925,-0.00000139,-0.00001248,0.0000
 0338,0.00000482,-0.00001681,-0.00000520,-0.00000962,-0.00001344,0.0000
 0164,0.00002521,-0.00001957,0.00003158,0.00001778,0.00000048,-0.000003
 55,0.00000124,-0.00002422,0.00002080,-0.00001157,0.00000240,-0.0000018
 8,-0.00000167,-0.00002868,-0.00002198,0.00002076,0.00000175,0.00000329
 ,0.00000042,-0.00002686,-0.00001320,0.00004480,-0.00002885,-0.00004975
 ,0.00001364,0.00000346,0.00000403,-0.00000347,-0.00000068,0.00000348,-
 0.00000135,-0.00000115,-0.00000054,0.00000196,-0.00000057,0.00000205,-
 0.00000151,0.00000260,-0.00000197,0.00000072,-0.00000512,0.00001020,-0
 .00001064,0.00000040,-0.00000136,-0.00000047,-0.00000032,0.00000114,-0
 .00000072,0.00000010,0.00000046,-0.00000014,-0.00000031,0.00000039,0.0
 0000035,-0.00000045,0.00000006,0.00000031,0.00000132,-0.00000047,0.000
 00022,-0.00000131,-0.00000155,0.00000099,0.00000164,0.00000005,-0.0000
 0072,-0.00000158,0.00000024,-0.00000015,0.00001052,-0.00000798,0.00002
 195,-0.00001183,-0.00000503,0.00000026,0.00000185,0.00000198,-0.000002
 11,0.00000027,-0.00000171,-0.00000142,-0.00000111,0.00000015,-0.000000
 13,-0.00001892,-0.00001036,-0.00000105,0.00004316,-0.00005813,0.000014
 05,-0.00004640,-0.00001340,-0.00003932,-0.00006529,-0.00002561,0.00002
 166,-0.00001357,0.00001379,0.00004703,0.00001059,-0.00001803,-0.000003
 38,-0.00002386,-0.00000919,0.00004286,0.00000270,0.00001710,0.00000074
 ,-0.00000881,-0.00002009,-0.00000174,0.00000799,0.00001892,0.00000875,
 -0.00004994,0.00008080,0.00001535,0.00009805,-0.00005071,-0.00001817,-
 0.00000715,-0.00003912,-0.00002408,-0.00001135,-0.00004326,-0.00001449
 ,0.00087558,-0.00039083,0.00153274,-0.00662409,0.00822405,-0.01395313,
 -0.00023948,-0.00271063,-0.00174855,0.00021097,0.00076771,0.00028860,-
 0.07573677,0.03484686,-0.06870680,0.01013230,-0.01149149,0.02266029,-0
 .00652156,0.00815472,-0.01870614,0.07789755,0.00005956,0.00002415,0.00
 004762,-0.00003972,-0.00000233,-0.00001082,-0.00024367,-0.00021512,-0.
 00033483,-0.00003060,-0.00002986,-0.00001281,-0.00001524,0.00001125,0.
 00000145,-0.00000744,0.00000441,0.00000502,-0.00002032,0.00000479,-0.0
 0000518,-0.00000468,0.00000254,-0.00000782,-0.00001783,-0.00001464,-0.
 00000677,-0.00000688,-0.00000392,-0.00000765,-0.00001349,-0.00001013,-
 0.00001659,-0.00000805,-0.00001065,-0.00002338,0.00001794,0.00003431,0
 .00001462,0.00000398,-0.00001314,-0.00000234,0.00000846,0.00000659,0.0
 0000218,0.00000934,0.00000927,0.00000429,0.00001999,0.00001705,0.00002
 350,0.00001346,-0.00001716,-0.00000899,0.00000066,0.00000191,-0.000000
 63,0.00001274,-0.00001078,0.00001112,-0.00000071,0.00000122,0.00000049
 ,0.00001418,0.00001330,0.00000783,-0.00000120,-0.00000410,-0.00000166,
 0.00001111,-0.00000038,0.00001095,0.00002083,0.00001925,0.00002169,0.,
 0.00000125,-0.00000061,-0.00000206,-0.00000402,-0.00000328,0.00000196,
 -0.00000070,-0.00000195,-0.00000046,-0.00000032,0.00000023,0.00000172,
 -0.00000024,-0.00000168,-0.00000176,0.00000416,-0.00000578,-0.00000020
 ,0.00000064,0.00000025,0.00000017,-0.00000094,0.00000084,-0.00000016,0
 .00000010,-0.00000011,0.00000024,-0.00000008,0.00000027,0.00000049,-0.
 00000016,-0.00000036,-0.00000072,0.00000054,-0.00000003,-0.00000049,-0
 .00000077,0.00000254,-0.00000026,-0.00000031,-0.00000081,-0.00000151,0
 .00000207,0.00000003,0.00000486,0.00000325,0.00001262,-0.00001133,-0.0
 0000147,0.00000333,0.00000140,-0.00000020,-0.00000017,0.00000047,-0.00
 000138,-0.00000314,-0.00000041,0.00000046,-0.00000012,-0.00002911,0.00
 007674,0.00003950,0.00000086,-0.00006017,0.00002981,-0.00000732,-0.000
 00394,-0.00002639,-0.00001621,0.00007689,0.00003436,-0.00001302,0.0000
 1195,0.00005135,0.00003063,-0.00003317,0.00003280,0.00001964,-0.000015
 79,-0.00001054,0.00000164,0.00000016,0.00000286,0.00000527,0.00001209,
 0.00000116,0.00000639,0.00001773,0.00001368,-0.00006353,0.00004713,0.0
 0005256,0.00012529,-0.00004751,-0.00002606,0.00001713,-0.00004585,-0.0
 0002554,-0.00000902,-0.00004412,-0.00002341,-0.00029430,0.00241049,0.0
 0192402,-0.00826710,0.01040188,-0.02334091,-0.00194423,-0.00305788,-0.
 00361834,0.00073603,0.00120716,0.00070778,0.03698760,-0.10253722,0.102
 19306,0.00509182,-0.00621348,0.01020685,0.00549866,-0.00977690,0.02041
 317,-0.03765148,0.10775410,0.00001122,-0.00003316,0.00003342,0.0000176
 7,0.00000313,0.00001148,-0.00014790,-0.00006743,-0.00023363,-0.0000090
 7,0.00002902,0.00003418,-0.00001256,0.00002451,0.00001071,-0.00000735,
 0.00000545,0.00001371,-0.00002178,0.00001458,0.00000299,-0.00000806,0.
 00000562,0.00000101,-0.00002810,-0.00001347,0.00001242,-0.00000878,-0.
 00000800,0.00002103,-0.00003902,-0.00005208,0.00006575,-0.00001173,-0.
 00002218,0.00001595,0.00000239,-0.00002967,-0.00003344,0.00000543,-0.0
 0000792,0.00000595,0.00000926,-0.00000820,-0.00000805,0.00001639,0.000
 00449,0.00001030,0.00000688,-0.00000793,-0.00004579,0.00001531,-0.0000
 2102,-0.00002140,-0.00000018,0.00000184,-0.00000011,0.00001918,-0.0000
 1302,0.00000125,-0.00000247,0.00000150,0.00000194,0.00002777,0.0000217
 5,-0.00002929,-0.00000156,-0.00000181,0.00000018,0.00003939,0.00001990
 ,-0.00005879,0.00003045,0.00005447,-0.00002683,-0.00000623,-0.00000609
 ,0.00000381,0.00000541,-0.00000099,0.00000821,-0.00000190,0.00000124,-
 0.00000060,0.00000175,-0.00000150,0.00000180,-0.00000450,0.00000242,-0
 .00000042,0.00000755,-0.00001263,0.00001752,-0.00000073,0.00000111,0.0
 0000057,-0.00000030,-0.00000108,-0.00000076,0.00000087,-0.00000051,-0.
 00000006,-0.00000001,-0.00000051,-0.00000055,0.00000022,0.00000022,-0.
 00000038,-0.00000088,0.00000019,-0.00000014,0.00000125,0.00000171,-0.0
 0000182,-0.00000168,-0.00000001,0.00000078,0.00000203,-0.00000081,0.00
 000040,-0.00001199,0.00000879,-0.00002590,0.00001248,0.00000709,0.0000
 0047,-0.00000246,-0.00000218,0.00000275,-0.00000028,0.00000245,0.00000
 264,0.00000127,-0.00000046,0.00000004,-0.00006124,0.00002524,-0.000007
 87,0.00000461,-0.00007350,0.00005838,0.00003624,0.00000791,-0.00003581
 ,-0.00000467,0.00014414,0.00006726,-0.00001357,0.00002690,0.00005615,0
 .00005416,-0.00003835,0.00003968,0.00003504,-0.00001949,0.00001825,0.0
 0000033,-0.00000969,-0.00000270,-0.00000129,0.00000122,0.00000026,0.00
 000884,0.00002647,0.00001599,-0.00009645,0.00012513,0.00008731,0.00013
 114,-0.00009016,-0.00003270,0.00002377,-0.00005834,-0.00003424,-0.0000
 0970,-0.00004988,-0.00002043,0.00091931,0.00068176,0.00209863,-0.00721
 219,0.00916199,-0.01888890,-0.00189394,-0.00329887,-0.00092605,0.00037
 563,-0.00033862,0.00121069,-0.06860601,0.09991685,-0.24065534,-0.00483
 101,0.00596993,-0.01168866,0.00270002,-0.00366428,0.00898724,0.0785363
 3,-0.10834519,0.25985954\\-0.00000479,0.00000624,0.00000031,0.00000425
 ,-0.00000568,-0.00000466,0.00000624,-0.00000343,0.00000145,-0.00000197
 ,0.00000345,0.00000129,0.00000056,0.00000230,0.00000024,-0.00000112,0.
 00000013,0.00000131,0.00000135,-0.00000519,-0.00000199,0.00000045,-0.0
 0000121,0.00000176,0.00000298,0.00000449,0.00000294,0.00000423,-0.0000
 0122,0.00000057,0.00000292,0.00000471,0.00000348,0.00000116,0.00000076
 ,0.00000124,0.00000072,0.00000074,0.00000318,0.00000011,-0.00000228,-0
 .00000203,-0.00000233,0.00000407,0.00000407,0.00000006,-0.00000839,-0.
 00000489,-0.00000151,-0.00000417,0.00000318,0.00000068,-0.00000070,-0.
 00000034,-0.00000046,0.00000048,-0.00000034,-0.00000149,0.00000295,0.0
 0000100,-0.00000061,-0.00000407,0.00000027,-0.00000832,0.00000090,0.00
 000073,0.00000025,-0.00000016,0.00000069,0.00000208,0.00000262,-0.0000
 0446,-0.00000380,-0.00000719,-0.00000049,0.00000176,0.00000002,-0.0000
 0007,-0.00000012,0.00000003,-0.00000052,-0.00000044,-0.00000022,0.0000
 0012,-0.00000011,-0.00000159,-0.00000066,0.00000035,0.00000006,0.00000
 146,0.00000075,0.00000008,-0.00000059,-0.00000083,-0.00000028,-0.00000
 006,-0.00000073,-0.00000059,0.00000024,-0.00000099,-0.00000043,0.00000
 055,0.00000012,0.,0.00000159,-0.00000048,0.00000092,-0.00000041,-0.000
 00088,-0.00000069,0.00000085,0.00000096,-0.00000147,-0.00000001,0.0000
 0101,-0.00000229,0.00000096,0.00000062,-0.00000055,0.00000146,0.000000
 19,-0.00000051,-0.00000067,-0.00000025,0.00000002,0.00000067,0.0000005
 0,-0.00000034,0.00000111,0.00000087,-0.00000013,-0.00000022,0.00000069
 ,0.00000023,0.00000072,-0.00000130,0.00000096,0.00000027,-0.00000139,0
 .00000207,-0.00000019,-0.00000061,0.00000058,-0.00000283,-0.00000273,0
 .00000056,-0.00000221,-0.00000027,0.00000130,-0.00000049,0.00000009,0.
 00000087,-0.00000091,0.00000051,-0.00000020,0.00000128,-0.00000061,0.0
 0000113,-0.00000106,-0.00000110,0.00000128,-0.00000111,-0.00000005,0.0
 0000090,-0.00000163,0.00000032,0.00000073,0.00000039,0.00000071,0.0000
 0128,-0.00000081,0.00000083,0.00000062,-0.00000116,-0.00000040,0.00000
 138,-0.00000152,-0.00000082,0.00000041,0.00000133,0.00000048,0.0000015
 0,-0.00000126,0.00000047,0.00000060,-0.00000039,0.00000074,0.00000041,
 -0.00000082,0.00000027,-0.00000027,-0.00000041,0.00000040,0.00000021,-
 0.00000037,0.00000020,0.00000067,-0.00000086,-0.00000039,0.00000062,-0
 .00000027\\\@


 ACTORS ARE SO FORTUNATE.  THEY CAN CHOOSE WHETHER
 THEY WILL APPEAR IN A TRAGEDY OR IN COMEDY,
 WHETHER THEY WILL SUFFER OF MAKE MERRY,
 LAUGH OR SHED TEARS.  BUT IN REAL LIFE IT IS DIFFERENT.
 MOST MEN AND WOMEN ARE FORCED TO PERFORM
 PARTS FOR WHICH THEY HAVE NO QUALIFICATIONS.
 THE WORLD IS A STAGE, BUT THE PLAY IS BADLY CAST.

                                   -- OSCAR WILDE
 Job cpu time:       0 days  7 hours 10 minutes 58.3 seconds.
 File lengths (MBytes):  RWF=   2533 Int=      0 D2E=      0 Chk=     25 Scr=      1
 Normal termination of Gaussian 09 at Wed Mar 29 14:13:03 2023.
