 Entering Gaussian System, Link 0=g09
 Input=c-term-se.com
 Output=c-term-se.log
 Initial command:
 /home/scr/programs/g09/l1.exe "/home/scr/helius/Gau-32417.inp" -scrdir="/home/scr/helius/"
 Entering Link 1 = /home/scr/programs/g09/l1.exe PID=     32419.
  
 Copyright (c) 1988,1990,1992,1993,1995,1998,2003,2009,2013,
            Gaussian, Inc.  All Rights Reserved.
  
 This is part of the Gaussian(R) 09 program.  It is based on
 the Gaussian(R) 03 system (copyright 2003, Gaussian, Inc.),
 the Gaussian(R) 98 system (copyright 1998, Gaussian, Inc.),
 the Gaussian(R) 94 system (copyright 1995, Gaussian, Inc.),
 the Gaussian 92(TM) system (copyright 1992, Gaussian, Inc.),
 the Gaussian 90(TM) system (copyright 1990, Gaussian, Inc.),
 the Gaussian 88(TM) system (copyright 1988, Gaussian, Inc.),
 the Gaussian 86(TM) system (copyright 1986, Carnegie Mellon
 University), and the Gaussian 82(TM) system (copyright 1983,
 Carnegie Mellon University). Gaussian is a federally registered
 trademark of Gaussian, Inc.
  
 This software contains proprietary and confidential information,
 including trade secrets, belonging to Gaussian, Inc.
  
 This software is provided under written license and may be
 used, copied, transmitted, or stored only in accord with that
 written license.
  
 The following legend is applicable only to US Government
 contracts under FAR:
  
                    RESTRICTED RIGHTS LEGEND
  
 Use, reproduction and disclosure by the US Government is
 subject to restrictions as set forth in subparagraphs (a)
 and (c) of the Commercial Computer Software - Restricted
 Rights clause in FAR 52.227-19.
  
 Gaussian, Inc.
 340 Quinnipiac St., Bldg. 40, Wallingford CT 06492
  
  
 ---------------------------------------------------------------
 Warning -- This program may not be used in any manner that
 competes with the business of Gaussian, Inc. or will provide
 assistance to any competitor of Gaussian, Inc.  The licensee
 of this program is prohibited from giving any competitor of
 Gaussian, Inc. access to this program.  By using this program,
 the user acknowledges that Gaussian, Inc. is engaged in the
 business of creating and licensing software in the field of
 computational chemistry and represents and warrants to the
 licensee that it is not a competitor of Gaussian, Inc. and that
 it will not use this program in any manner prohibited above.
 ---------------------------------------------------------------
  

 Cite this work as:
 Gaussian 09, Revision D.01,
 M. J. Frisch, G. W. Trucks, H. B. Schlegel, G. E. Scuseria, 
 M. A. Robb, J. R. Cheeseman, G. Scalmani, V. Barone, B. Mennucci, 
 G. A. Petersson, H. Nakatsuji, M. Caricato, X. Li, H. P. Hratchian, 
 A. F. Izmaylov, J. Bloino, G. Zheng, J. L. Sonnenberg, M. Hada, 
 M. Ehara, K. Toyota, R. Fukuda, J. Hasegawa, M. Ishida, T. Nakajima, 
 Y. Honda, O. Kitao, H. Nakai, T. Vreven, J. A. Montgomery, Jr., 
 J. E. Peralta, F. Ogliaro, M. Bearpark, J. J. Heyd, E. Brothers, 
 K. N. Kudin, V. N. Staroverov, T. Keith, R. Kobayashi, J. Normand, 
 K. Raghavachari, A. Rendell, J. C. Burant, S. S. Iyengar, J. Tomasi, 
 M. Cossi, N. Rega, J. M. Millam, M. Klene, J. E. Knox, J. B. Cross, 
 V. Bakken, C. Adamo, J. Jaramillo, R. Gomperts, R. E. Stratmann, 
 O. Yazyev, A. J. Austin, R. Cammi, C. Pomelli, J. W. Ochterski, 
 R. L. Martin, K. Morokuma, V. G. Zakrzewski, G. A. Voth, 
 P. Salvador, J. J. Dannenberg, S. Dapprich, A. D. Daniels, 
 O. Farkas, J. B. Foresman, J. V. Ortiz, J. Cioslowski, 
 and D. J. Fox, Gaussian, Inc., Wallingford CT, 2013.
 
 ******************************************
 Gaussian 09:  EM64L-G09RevD.01 24-Apr-2013
                25-Oct-2022 
 ******************************************
 %nprocshared=4
 Will use up to    4 processors via shared memory.
 %mem=6000MB
 ----------------------------
 # opt freq=noraman b3lyp/gen
 ----------------------------
 1/14=-1,18=20,19=15,26=3,38=1/1,3;
 2/9=110,12=2,17=6,18=5,40=1/2;
 3/5=7,11=2,16=1,25=1,30=1,71=1,74=-5/1,2,3;
 4//1;
 5/5=2,38=5/2;
 6/7=2,8=2,9=2,10=2,28=1/1;
 7//1,2,3,16;
 1/14=-1,18=20,19=15,26=3/3(2);
 2/9=110/2;
 99//99;
 2/9=110/2;
 3/5=7,6=1,11=2,16=1,25=1,30=1,71=1,74=-5,82=7/1,2,3;
 4/5=5,16=3,69=1/1;
 5/5=2,38=5/2;
 7//1,2,3,16;
 1/14=-1,18=20,19=15,26=3/3(-5);
 2/9=110/2;
 6/7=2,8=2,9=2,10=2,19=2,28=1/1;
 99/9=1/99;
 -------------------
 Title Card Required
 -------------------
 Symbolic Z-matrix:
 Charge =  0 Multiplicity = 1
 N                     6.40952   1.84741   0.04424 
 C                     5.04482   1.37125   0.27776 
 C                     4.59849   0.39628  -0.82743 
 O                     4.8759    0.62856  -1.99868 
 C                     4.10711   2.59911   0.28327 
 O                     2.7526    2.27253   0.55428 
 N                     3.89826  -0.74546  -0.50471 
 C                     3.51496  -1.24076   0.8079 
 C                     2.36355  -0.47682   1.48229 
 O                     2.57113   0.12599   2.53289 
 N                     1.10305  -0.48677   0.9331 
 C                     0.71358  -0.72855  -0.46085 
 C                    -0.72415  -0.25633  -0.71043 
 O                    -1.05851   0.21669  -1.78607 
 C                     0.75879  -2.21579  -0.90358 
 S                    -0.27052  -3.43624   0.03556 
 N                    -1.60137  -0.51245   0.31494 
 C                    -2.99911  -0.8324    0.01004 
 C                    -3.22652  -2.34323   0.16588 
 C                    -3.91241  -0.05573   0.98052 
 O                    -4.24019  -0.5431    2.05635 
 N                    -4.29551   1.19231   0.59555 
 C                    -3.93552   1.91226  -0.60954 
 C                    -4.22655   3.38758  -0.39882 
 O                    -4.73595   3.85742   0.59427 
 O                    -3.86231   4.111    -1.47278 
 H                     4.51227   3.32372   1.00159 
 H                     4.12225   3.05821  -0.7104 
 H                     2.70111   1.97833   1.47996 
 H                     5.00329   0.90803   1.26907 
 H                     6.49623   2.04206  -0.9543 
 H                     7.07403   1.09947   0.2374 
 H                     4.3483   -1.18466   1.51254 
 H                     3.25504  -2.29869   0.7054 
 H                     3.69955  -1.31875  -1.31597 
 H                     1.77195  -2.61868  -0.81666 
 H                     0.47885  -2.26712  -1.95941 
 H                     1.34993  -0.15718  -1.14399 
 H                     0.52565   0.19195   1.4206 
 H                    -4.24276  -2.60808  -0.1488 
 H                    -3.13125  -2.63557   1.21389 
 H                    -3.16057  -0.53077  -1.02633 
 H                    -1.22681  -1.02534   1.10686 
 H                    -4.51487   1.58476  -1.48589 
 H                    -2.87925   1.7916   -0.87473 
 H                    -4.81528   1.72653   1.28578 
 H                    -4.0842    5.04112  -1.27593 
 Se                   -2.15227  -3.41502  -0.88722 
 

 GradGradGradGradGradGradGradGradGradGradGradGradGradGradGradGradGradGrad
 Berny optimization.
 Initialization pass.
                           ----------------------------
                           !    Initial Parameters    !
                           ! (Angstroms and Degrees)  !
 --------------------------                            --------------------------
 ! Name  Definition              Value          Derivative Info.                !
 --------------------------------------------------------------------------------
 ! R1    R(1,2)                  1.4641         estimate D2E/DX2                !
 ! R2    R(1,31)                 1.021          estimate D2E/DX2                !
 ! R3    R(1,32)                 1.019          estimate D2E/DX2                !
 ! R4    R(2,3)                  1.5399         estimate D2E/DX2                !
 ! R5    R(2,5)                  1.545          estimate D2E/DX2                !
 ! R6    R(2,30)                 1.095          estimate D2E/DX2                !
 ! R7    R(3,4)                  1.2259         estimate D2E/DX2                !
 ! R8    R(3,7)                  1.3777         estimate D2E/DX2                !
 ! R9    R(5,6)                  1.4194         estimate D2E/DX2                !
 ! R10   R(5,27)                 1.0978         estimate D2E/DX2                !
 ! R11   R(5,28)                 1.0947         estimate D2E/DX2                !
 ! R12   R(6,29)                 0.9727         estimate D2E/DX2                !
 ! R13   R(7,8)                  1.4544         estimate D2E/DX2                !
 ! R14   R(7,35)                 1.0131         estimate D2E/DX2                !
 ! R15   R(8,9)                  1.5376         estimate D2E/DX2                !
 ! R16   R(8,33)                 1.0928         estimate D2E/DX2                !
 ! R17   R(8,34)                 1.0942         estimate D2E/DX2                !
 ! R18   R(9,10)                 1.2289         estimate D2E/DX2                !
 ! R19   R(9,11)                 1.375          estimate D2E/DX2                !
 ! R20   R(11,12)                1.4674         estimate D2E/DX2                !
 ! R21   R(11,39)                1.0157         estimate D2E/DX2                !
 ! R22   R(12,13)                1.5337         estimate D2E/DX2                !
 ! R23   R(12,15)                1.5524         estimate D2E/DX2                !
 ! R24   R(12,38)                1.0946         estimate D2E/DX2                !
 ! R25   R(13,14)                1.2217         estimate D2E/DX2                !
 ! R26   R(13,17)                1.3735         estimate D2E/DX2                !
 ! R27   R(15,16)                1.8523         estimate D2E/DX2                !
 ! R28   R(15,36)                1.0938         estimate D2E/DX2                !
 ! R29   R(15,37)                1.0935         estimate D2E/DX2                !
 ! R30   R(16,48)                2.0959         estimate D2E/DX2                !
 ! R31   R(17,18)                1.466          estimate D2E/DX2                !
 ! R32   R(17,43)                1.0151         estimate D2E/DX2                !
 ! R33   R(18,19)                1.5358         estimate D2E/DX2                !
 ! R34   R(18,20)                1.5425         estimate D2E/DX2                !
 ! R35   R(18,42)                1.0914         estimate D2E/DX2                !
 ! R36   R(19,40)                1.0963         estimate D2E/DX2                !
 ! R37   R(19,41)                1.0922         estimate D2E/DX2                !
 ! R38   R(19,48)                1.8471         estimate D2E/DX2                !
 ! R39   R(20,21)                1.2257         estimate D2E/DX2                !
 ! R40   R(20,22)                1.3611         estimate D2E/DX2                !
 ! R41   R(22,23)                1.4492         estimate D2E/DX2                !
 ! R42   R(22,46)                1.0159         estimate D2E/DX2                !
 ! R43   R(23,24)                1.5184         estimate D2E/DX2                !
 ! R44   R(23,44)                1.1004         estimate D2E/DX2                !
 ! R45   R(23,45)                1.0957         estimate D2E/DX2                !
 ! R46   R(24,25)                1.211          estimate D2E/DX2                !
 ! R47   R(24,26)                1.3451         estimate D2E/DX2                !
 ! R48   R(26,47)                0.9763         estimate D2E/DX2                !
 ! A1    A(2,1,31)             107.2853         estimate D2E/DX2                !
 ! A2    A(2,1,32)             109.81           estimate D2E/DX2                !
 ! A3    A(31,1,32)            105.6608         estimate D2E/DX2                !
 ! A4    A(1,2,3)              111.1993         estimate D2E/DX2                !
 ! A5    A(1,2,5)              107.9283         estimate D2E/DX2                !
 ! A6    A(1,2,30)             108.5009         estimate D2E/DX2                !
 ! A7    A(3,2,5)              109.2581         estimate D2E/DX2                !
 ! A8    A(3,2,30)             111.7721         estimate D2E/DX2                !
 ! A9    A(5,2,30)             108.0568         estimate D2E/DX2                !
 ! A10   A(2,3,4)              120.0112         estimate D2E/DX2                !
 ! A11   A(2,3,7)              120.2587         estimate D2E/DX2                !
 ! A12   A(4,3,7)              119.7272         estimate D2E/DX2                !
 ! A13   A(2,5,6)              113.3913         estimate D2E/DX2                !
 ! A14   A(2,5,27)             107.6319         estimate D2E/DX2                !
 ! A15   A(2,5,28)             108.764          estimate D2E/DX2                !
 ! A16   A(6,5,27)             112.2786         estimate D2E/DX2                !
 ! A17   A(6,5,28)             106.439          estimate D2E/DX2                !
 ! A18   A(27,5,28)            108.1805         estimate D2E/DX2                !
 ! A19   A(5,6,29)             107.5665         estimate D2E/DX2                !
 ! A20   A(3,7,8)              128.8737         estimate D2E/DX2                !
 ! A21   A(3,7,35)             112.4007         estimate D2E/DX2                !
 ! A22   A(8,7,35)             118.5764         estimate D2E/DX2                !
 ! A23   A(7,8,9)              115.0874         estimate D2E/DX2                !
 ! A24   A(7,8,33)             111.3158         estimate D2E/DX2                !
 ! A25   A(7,8,34)             107.8984         estimate D2E/DX2                !
 ! A26   A(9,8,33)             105.2324         estimate D2E/DX2                !
 ! A27   A(9,8,34)             110.0952         estimate D2E/DX2                !
 ! A28   A(33,8,34)            106.9299         estimate D2E/DX2                !
 ! A29   A(8,9,10)             119.4846         estimate D2E/DX2                !
 ! A30   A(8,9,11)             120.5115         estimate D2E/DX2                !
 ! A31   A(10,9,11)            119.991          estimate D2E/DX2                !
 ! A32   A(9,11,12)            128.6041         estimate D2E/DX2                !
 ! A33   A(9,11,39)            108.941          estimate D2E/DX2                !
 ! A34   A(12,11,39)           114.5286         estimate D2E/DX2                !
 ! A35   A(11,12,13)           110.6496         estimate D2E/DX2                !
 ! A36   A(11,12,15)           114.9003         estimate D2E/DX2                !
 ! A37   A(11,12,38)           110.6448         estimate D2E/DX2                !
 ! A38   A(13,12,15)           106.013          estimate D2E/DX2                !
 ! A39   A(13,12,38)           106.4209         estimate D2E/DX2                !
 ! A40   A(15,12,38)           107.7685         estimate D2E/DX2                !
 ! A41   A(12,13,14)           121.2675         estimate D2E/DX2                !
 ! A42   A(12,13,17)           114.822          estimate D2E/DX2                !
 ! A43   A(14,13,17)           123.6895         estimate D2E/DX2                !
 ! A44   A(12,15,16)           118.0637         estimate D2E/DX2                !
 ! A45   A(12,15,36)           110.9281         estimate D2E/DX2                !
 ! A46   A(12,15,37)           108.2327         estimate D2E/DX2                !
 ! A47   A(16,15,36)           103.4002         estimate D2E/DX2                !
 ! A48   A(16,15,37)           108.4425         estimate D2E/DX2                !
 ! A49   A(36,15,37)           107.2517         estimate D2E/DX2                !
 ! A50   A(15,16,48)           105.6058         estimate D2E/DX2                !
 ! A51   A(13,17,18)           119.6291         estimate D2E/DX2                !
 ! A52   A(13,17,43)           116.1644         estimate D2E/DX2                !
 ! A53   A(18,17,43)           113.8155         estimate D2E/DX2                !
 ! A54   A(17,18,19)           109.5595         estimate D2E/DX2                !
 ! A55   A(17,18,20)           108.8924         estimate D2E/DX2                !
 ! A56   A(17,18,42)           106.1552         estimate D2E/DX2                !
 ! A57   A(19,18,20)           110.1107         estimate D2E/DX2                !
 ! A58   A(19,18,42)           110.264          estimate D2E/DX2                !
 ! A59   A(20,18,42)           111.7589         estimate D2E/DX2                !
 ! A60   A(18,19,40)           110.2295         estimate D2E/DX2                !
 ! A61   A(18,19,41)           110.3512         estimate D2E/DX2                !
 ! A62   A(18,19,48)           115.2686         estimate D2E/DX2                !
 ! A63   A(40,19,41)           106.9546         estimate D2E/DX2                !
 ! A64   A(40,19,48)           103.6082         estimate D2E/DX2                !
 ! A65   A(41,19,48)           109.9401         estimate D2E/DX2                !
 ! A66   A(18,20,21)           120.6883         estimate D2E/DX2                !
 ! A67   A(18,20,22)           116.7698         estimate D2E/DX2                !
 ! A68   A(21,20,22)           122.519          estimate D2E/DX2                !
 ! A69   A(20,22,23)           128.3756         estimate D2E/DX2                !
 ! A70   A(20,22,46)           115.7238         estimate D2E/DX2                !
 ! A71   A(23,22,46)           115.5215         estimate D2E/DX2                !
 ! A72   A(22,23,24)           108.6434         estimate D2E/DX2                !
 ! A73   A(22,23,44)           112.5569         estimate D2E/DX2                !
 ! A74   A(22,23,45)           112.7067         estimate D2E/DX2                !
 ! A75   A(24,23,44)           107.3836         estimate D2E/DX2                !
 ! A76   A(24,23,45)           108.987          estimate D2E/DX2                !
 ! A77   A(44,23,45)           106.3807         estimate D2E/DX2                !
 ! A78   A(23,24,25)           124.8474         estimate D2E/DX2                !
 ! A79   A(23,24,26)           111.0898         estimate D2E/DX2                !
 ! A80   A(25,24,26)           124.0557         estimate D2E/DX2                !
 ! A81   A(24,26,47)           106.8486         estimate D2E/DX2                !
 ! A82   A(16,48,19)           106.0818         estimate D2E/DX2                !
 ! D1    D(31,1,2,3)            41.7615         estimate D2E/DX2                !
 ! D2    D(31,1,2,5)           -78.0604         estimate D2E/DX2                !
 ! D3    D(31,1,2,30)          165.0808         estimate D2E/DX2                !
 ! D4    D(32,1,2,3)           -72.6059         estimate D2E/DX2                !
 ! D5    D(32,1,2,5)           167.5721         estimate D2E/DX2                !
 ! D6    D(32,1,2,30)           50.7133         estimate D2E/DX2                !
 ! D7    D(1,2,3,4)            -41.3756         estimate D2E/DX2                !
 ! D8    D(1,2,3,7)            137.9946         estimate D2E/DX2                !
 ! D9    D(5,2,3,4)             77.6532         estimate D2E/DX2                !
 ! D10   D(5,2,3,7)           -102.9766         estimate D2E/DX2                !
 ! D11   D(30,2,3,4)          -162.8025         estimate D2E/DX2                !
 ! D12   D(30,2,3,7)            16.5677         estimate D2E/DX2                !
 ! D13   D(1,2,5,6)           -177.6664         estimate D2E/DX2                !
 ! D14   D(1,2,5,27)           -52.8535         estimate D2E/DX2                !
 ! D15   D(1,2,5,28)            64.1307         estimate D2E/DX2                !
 ! D16   D(3,2,5,6)             61.2938         estimate D2E/DX2                !
 ! D17   D(3,2,5,27)          -173.8933         estimate D2E/DX2                !
 ! D18   D(3,2,5,28)           -56.9091         estimate D2E/DX2                !
 ! D19   D(30,2,5,6)           -60.5198         estimate D2E/DX2                !
 ! D20   D(30,2,5,27)           64.2931         estimate D2E/DX2                !
 ! D21   D(30,2,5,28)         -178.7227         estimate D2E/DX2                !
 ! D22   D(2,3,7,8)             -2.1436         estimate D2E/DX2                !
 ! D23   D(2,3,7,35)          -177.5771         estimate D2E/DX2                !
 ! D24   D(4,3,7,8)            177.2283         estimate D2E/DX2                !
 ! D25   D(4,3,7,35)             1.7948         estimate D2E/DX2                !
 ! D26   D(2,5,6,29)            68.2191         estimate D2E/DX2                !
 ! D27   D(27,5,6,29)          -54.0477         estimate D2E/DX2                !
 ! D28   D(28,5,6,29)         -172.2402         estimate D2E/DX2                !
 ! D29   D(3,7,8,9)             73.9864         estimate D2E/DX2                !
 ! D30   D(3,7,8,33)           -45.623          estimate D2E/DX2                !
 ! D31   D(3,7,8,34)          -162.656          estimate D2E/DX2                !
 ! D32   D(35,7,8,9)          -110.8217         estimate D2E/DX2                !
 ! D33   D(35,7,8,33)          129.5688         estimate D2E/DX2                !
 ! D34   D(35,7,8,34)           12.5359         estimate D2E/DX2                !
 ! D35   D(7,8,9,10)          -116.463          estimate D2E/DX2                !
 ! D36   D(7,8,9,11)            64.8432         estimate D2E/DX2                !
 ! D37   D(33,8,9,10)            6.4571         estimate D2E/DX2                !
 ! D38   D(33,8,9,11)         -172.2367         estimate D2E/DX2                !
 ! D39   D(34,8,9,10)          121.3543         estimate D2E/DX2                !
 ! D40   D(34,8,9,11)          -57.3395         estimate D2E/DX2                !
 ! D41   D(8,9,11,12)          -23.687          estimate D2E/DX2                !
 ! D42   D(8,9,11,39)         -170.3696         estimate D2E/DX2                !
 ! D43   D(10,9,11,12)         157.6258         estimate D2E/DX2                !
 ! D44   D(10,9,11,39)          10.9433         estimate D2E/DX2                !
 ! D45   D(9,11,12,13)        -163.7597         estimate D2E/DX2                !
 ! D46   D(9,11,12,15)          76.2441         estimate D2E/DX2                !
 ! D47   D(9,11,12,38)         -46.061          estimate D2E/DX2                !
 ! D48   D(39,11,12,13)        -18.5848         estimate D2E/DX2                !
 ! D49   D(39,11,12,15)       -138.581          estimate D2E/DX2                !
 ! D50   D(39,11,12,38)         99.1139         estimate D2E/DX2                !
 ! D51   D(11,12,13,14)        145.8835         estimate D2E/DX2                !
 ! D52   D(11,12,13,17)        -39.3262         estimate D2E/DX2                !
 ! D53   D(15,12,13,14)        -88.9281         estimate D2E/DX2                !
 ! D54   D(15,12,13,17)         85.8622         estimate D2E/DX2                !
 ! D55   D(38,12,13,14)         25.6273         estimate D2E/DX2                !
 ! D56   D(38,12,13,17)       -159.5824         estimate D2E/DX2                !
 ! D57   D(11,12,15,16)         58.0404         estimate D2E/DX2                !
 ! D58   D(11,12,15,36)        -60.9762         estimate D2E/DX2                !
 ! D59   D(11,12,15,37)       -178.3812         estimate D2E/DX2                !
 ! D60   D(13,12,15,16)        -64.4872         estimate D2E/DX2                !
 ! D61   D(13,12,15,36)        176.4962         estimate D2E/DX2                !
 ! D62   D(13,12,15,37)         59.0912         estimate D2E/DX2                !
 ! D63   D(38,12,15,16)       -178.1157         estimate D2E/DX2                !
 ! D64   D(38,12,15,36)         62.8677         estimate D2E/DX2                !
 ! D65   D(38,12,15,37)        -54.5373         estimate D2E/DX2                !
 ! D66   D(12,13,17,18)       -145.8484         estimate D2E/DX2                !
 ! D67   D(12,13,17,43)         -3.0048         estimate D2E/DX2                !
 ! D68   D(14,13,17,18)         28.7994         estimate D2E/DX2                !
 ! D69   D(14,13,17,43)        171.643          estimate D2E/DX2                !
 ! D70   D(12,15,16,48)         87.5156         estimate D2E/DX2                !
 ! D71   D(36,15,16,48)       -149.5874         estimate D2E/DX2                !
 ! D72   D(37,15,16,48)        -35.9578         estimate D2E/DX2                !
 ! D73   D(15,16,48,19)        -99.6677         estimate D2E/DX2                !
 ! D74   D(13,17,18,19)        103.2877         estimate D2E/DX2                !
 ! D75   D(13,17,18,20)       -136.231          estimate D2E/DX2                !
 ! D76   D(13,17,18,42)        -15.7632         estimate D2E/DX2                !
 ! D77   D(43,17,18,19)        -40.3735         estimate D2E/DX2                !
 ! D78   D(43,17,18,20)         80.1078         estimate D2E/DX2                !
 ! D79   D(43,17,18,42)       -159.4244         estimate D2E/DX2                !
 ! D80   D(17,18,19,40)       -174.7714         estimate D2E/DX2                !
 ! D81   D(17,18,19,41)         67.3132         estimate D2E/DX2                !
 ! D82   D(17,18,19,48)        -57.9489         estimate D2E/DX2                !
 ! D83   D(20,18,19,40)         65.4913         estimate D2E/DX2                !
 ! D84   D(20,18,19,41)        -52.4241         estimate D2E/DX2                !
 ! D85   D(20,18,19,48)       -177.6862         estimate D2E/DX2                !
 ! D86   D(42,18,19,40)        -58.2885         estimate D2E/DX2                !
 ! D87   D(42,18,19,41)       -176.2039         estimate D2E/DX2                !
 ! D88   D(42,18,19,48)         58.5341         estimate D2E/DX2                !
 ! D89   D(17,18,20,21)        -89.5743         estimate D2E/DX2                !
 ! D90   D(17,18,20,22)         88.7271         estimate D2E/DX2                !
 ! D91   D(19,18,20,21)         30.5669         estimate D2E/DX2                !
 ! D92   D(19,18,20,22)       -151.1318         estimate D2E/DX2                !
 ! D93   D(42,18,20,21)        153.4739         estimate D2E/DX2                !
 ! D94   D(42,18,20,22)        -28.2247         estimate D2E/DX2                !
 ! D95   D(18,19,48,16)         76.9266         estimate D2E/DX2                !
 ! D96   D(40,19,48,16)       -162.564          estimate D2E/DX2                !
 ! D97   D(41,19,48,16)        -48.5479         estimate D2E/DX2                !
 ! D98   D(18,20,22,23)         -1.3305         estimate D2E/DX2                !
 ! D99   D(18,20,22,46)       -173.881          estimate D2E/DX2                !
 ! D100  D(21,20,22,23)        176.9371         estimate D2E/DX2                !
 ! D101  D(21,20,22,46)          4.3866         estimate D2E/DX2                !
 ! D102  D(20,22,23,24)       -162.1678         estimate D2E/DX2                !
 ! D103  D(20,22,23,44)         79.0439         estimate D2E/DX2                !
 ! D104  D(20,22,23,45)        -41.2775         estimate D2E/DX2                !
 ! D105  D(46,22,23,24)         10.3953         estimate D2E/DX2                !
 ! D106  D(46,22,23,44)       -108.3929         estimate D2E/DX2                !
 ! D107  D(46,22,23,45)        131.2857         estimate D2E/DX2                !
 ! D108  D(22,23,24,25)         -3.272          estimate D2E/DX2                !
 ! D109  D(22,23,24,26)        177.6726         estimate D2E/DX2                !
 ! D110  D(44,23,24,25)        118.7228         estimate D2E/DX2                !
 ! D111  D(44,23,24,26)        -60.3326         estimate D2E/DX2                !
 ! D112  D(45,23,24,25)       -126.4277         estimate D2E/DX2                !
 ! D113  D(45,23,24,26)         54.517          estimate D2E/DX2                !
 ! D114  D(23,24,26,47)        179.3942         estimate D2E/DX2                !
 ! D115  D(25,24,26,47)          0.3299         estimate D2E/DX2                !
 --------------------------------------------------------------------------------
 Trust Radius=3.00D-01 FncErr=1.00D-07 GrdErr=1.00D-06
 Number of steps in this run=    255 maximum allowed number of steps=    288.
 GradGradGradGradGradGradGradGradGradGradGradGradGradGradGradGradGradGrad

                          Input orientation:                          
 ---------------------------------------------------------------------
 Center     Atomic      Atomic             Coordinates (Angstroms)
 Number     Number       Type             X           Y           Z
 ---------------------------------------------------------------------
      1          7           0        6.409522    1.847414    0.044243
      2          6           0        5.044822    1.371250    0.277755
      3          6           0        4.598486    0.396280   -0.827434
      4          8           0        4.875904    0.628562   -1.998675
      5          6           0        4.107108    2.599111    0.283265
      6          8           0        2.752596    2.272532    0.554280
      7          7           0        3.898257   -0.745459   -0.504707
      8          6           0        3.514960   -1.240763    0.807903
      9          6           0        2.363551   -0.476815    1.482292
     10          8           0        2.571130    0.125993    2.532885
     11          7           0        1.103050   -0.486773    0.933102
     12          6           0        0.713584   -0.728552   -0.460849
     13          6           0       -0.724152   -0.256331   -0.710429
     14          8           0       -1.058512    0.216691   -1.786067
     15          6           0        0.758792   -2.215794   -0.903579
     16         16           0       -0.270523   -3.436239    0.035561
     17          7           0       -1.601368   -0.512454    0.314939
     18          6           0       -2.999111   -0.832404    0.010036
     19          6           0       -3.226515   -2.343231    0.165878
     20          6           0       -3.912406   -0.055725    0.980520
     21          8           0       -4.240194   -0.543098    2.056354
     22          7           0       -4.295506    1.192309    0.595545
     23          6           0       -3.935515    1.912262   -0.609540
     24          6           0       -4.226554    3.387583   -0.398822
     25          8           0       -4.735953    3.857419    0.594266
     26          8           0       -3.862314    4.110998   -1.472782
     27          1           0        4.512268    3.323720    1.001587
     28          1           0        4.122246    3.058213   -0.710401
     29          1           0        2.701106    1.978330    1.479964
     30          1           0        5.003294    0.908025    1.269066
     31          1           0        6.496228    2.042063   -0.954302
     32          1           0        7.074029    1.099474    0.237401
     33          1           0        4.348299   -1.184657    1.512544
     34          1           0        3.255036   -2.298687    0.705400
     35          1           0        3.699552   -1.318754   -1.315974
     36          1           0        1.771947   -2.618681   -0.816661
     37          1           0        0.478848   -2.267124   -1.959408
     38          1           0        1.349926   -0.157181   -1.143993
     39          1           0        0.525646    0.191947    1.420598
     40          1           0       -4.242757   -2.608075   -0.148802
     41          1           0       -3.131253   -2.635571    1.213888
     42          1           0       -3.160570   -0.530766   -1.026335
     43          1           0       -1.226810   -1.025341    1.106857
     44          1           0       -4.514869    1.584764   -1.485885
     45          1           0       -2.879254    1.791597   -0.874729
     46          1           0       -4.815283    1.726534    1.285782
     47          1           0       -4.084201    5.041116   -1.275928
     48         34           0       -2.152269   -3.415024   -0.887222
 ---------------------------------------------------------------------
                    Distance matrix (angstroms):
                    1          2          3          4          5
     1  N    0.000000
     2  C    1.464126   0.000000
     3  C    2.479004   1.539878   0.000000
     4  O    2.830388   2.400469   1.225855   0.000000
     5  C    2.433781   1.544986   2.515466   3.111489   0.000000
     6  O    3.716715   2.478523   2.972670   3.705220   1.419439
     7  N    3.651135   2.531267   1.377694   2.252924   3.442480
     8  C    4.300989   3.073133   2.555047   3.636403   3.920525
     9  C    4.882613   3.472098   3.330475   4.432934   3.733494
    10  O    4.887728   3.571474   3.933824   5.108776   3.679175
    11  N    5.864908   4.406733   4.012149   4.906497   4.355380
    12  C    6.271717   4.869736   4.061046   4.640213   4.810723
    13  C    7.475599   6.075079   5.363774   5.814055   5.699303
    14  O    7.860078   6.545461   5.740458   5.952490   6.053238
    15  C    7.024157   5.712485   4.644564   5.122520   5.983572
    16  S    8.517046   7.171018   6.256214   6.866326   7.459924
    17  N    8.355634   6.908080   6.369380   6.972071   6.501503
    18  C    9.782892   8.344616   7.741738   8.257433   7.896094
    19  C   10.508545   9.067795   8.349984   8.897530   8.844351
    20  C   10.537587   9.097366   8.712536   9.304743   8.476256
    21  O   11.098630   9.645707   9.344567  10.045859   9.093667
    22  N   10.739214   9.347446   9.042214   9.547908   8.525288
    23  C   10.365878   9.040268   8.670343   9.012141   8.121124
    24  C   10.756140   9.512191   9.328072   9.645023   8.398622
    25  O   11.338618  10.096771  10.056464  10.465976   8.937549
    26  O   10.627125   9.481966   9.262869   9.421273   8.299469
    27  H    2.587578   2.149345   3.452920   4.049405   1.097816
    28  H    2.695766   2.161815   2.706730   2.851465   1.094704
    29  H    3.978792   2.703120   3.380387   4.318860   1.947896
    30  H    2.088090   1.094988   2.195692   3.282142   2.152841
    31  H    1.021028   2.018547   2.515178   2.390429   2.747684
    32  H    1.018967   2.047724   2.785080   3.170733   3.324701
    33  H    3.949431   2.922757   2.835040   3.986827   3.985750
    34  H    5.251482   4.105442   3.378947   4.302095   4.989253
    35  H    4.383919   3.403799   1.997022   2.375274   4.251274
    36  H    6.495711   5.275321   4.132727   4.645029   5.821354
    37  H    7.491124   6.252262   5.034531   5.265039   6.471020
    38  H    5.570441   4.243787   3.310539   3.712195   4.151658
    39  H    6.265375   4.808305   4.656547   5.550388   4.462604
    40  H   11.548147  10.113165   9.362386   9.851286   9.849960
    41  H   10.606206   9.153096   8.550321   9.224407   8.981193
    42  H    9.919100   8.523308   7.816772   8.177677   8.020619
    43  H    8.227724   6.764941   6.300521   7.044348   6.501203
    44  H   11.034156   9.723359   9.214081   9.453248   8.859869
    45  H    9.334291   8.018472   7.606954   7.922019   7.127572
    46  H   11.293904   9.917863   9.739317  10.291370   9.020837
    47  H   11.048113   9.960969   9.857216  10.013814   8.688614
    48  Se  10.092826   8.721451   7.752568   8.184200   8.758976
                    6          7          8          9         10
     6  O    0.000000
     7  N    3.397391   0.000000
     8  C    3.603993   1.454368   0.000000
     9  C    2.927708   2.525006   1.537582   0.000000
    10  O    2.924968   3.427486   2.394661   1.228907   0.000000
    11  N    3.237016   3.153949   2.530116   1.374981   2.256113
    12  C    3.767567   3.185020   3.117659   2.561554   3.625351
    13  C    4.481341   4.652766   4.609177   3.793488   4.639412
    14  O    4.922220   5.209335   5.456143   4.782639   5.642329
    15  C    5.123054   3.489588   3.387671   3.360309   4.536278
    16  S    6.480616   4.991083   4.443704   4.217768   5.196260
    17  N    5.174015   5.565248   5.191364   4.133348   4.768295
    18  C    6.558884   6.917095   6.575444   5.572443   6.189578
    19  C    7.563458   7.332458   6.861131   6.038650   6.731454
    20  C    7.072815   7.980482   7.523289   6.310050   6.669265
    21  O    7.686554   8.534305   7.885923   6.628981   6.860678
    22  N    7.130521   8.491363   8.183417   6.922090   7.213945
    23  C    6.798169   8.272996   8.213421   7.054196   7.443253
    24  C    7.131639   9.116238   9.099935   7.867760   8.089585
    25  O    7.654530   9.846005   9.701271   8.365234   8.430614
    26  O    7.158629   9.205911   9.395054   8.279003   8.562408
    27  H    2.097981   4.382254   4.676178   4.392281   4.042072
    28  H    2.023031   3.815809   4.599482   4.516341   4.639265
    29  H    0.972675   3.576467   3.387711   2.478242   2.134640
    30  H    2.727350   2.664843   2.654261   2.988560   2.850304
    31  H    4.042736   3.836909   4.771821   5.418557   5.589114
    32  H    4.489016   3.747003   4.297575   5.120844   5.147136
    33  H    3.926410   2.112992   1.092758   2.107411   2.432535
    34  H    4.601231   2.071379   1.094199   2.171986   3.112315
    35  H    4.158354   1.013067   2.133310   3.213106   4.263138
    36  H    5.173501   2.850872   2.752446   3.197307   4.403565
    37  H    5.665424   4.015467   4.234313   4.313074   5.503213
    38  H    3.279500   2.692350   3.109891   2.833192   3.884708
    39  H    3.168382   3.995001   3.371061   1.956769   2.329278
    40  H    8.558599   8.358954   7.935175   7.130641   7.816369
    41  H    7.690529   7.479312   6.803121   5.909750   6.471720
    42  H    6.732188   7.081329   6.959255   6.067292   6.778773
    43  H    5.197786   5.379757   4.756066   3.651373   4.217046
    44  H    7.579667   8.784836   8.816077   7.769996   8.275863
    45  H    5.830189   7.246256   7.274093   6.179664   6.640238
    46  H    7.622729   9.232680   8.855855   7.511925   7.660032
    47  H    7.599771   9.889331  10.077282   8.923500   9.108179
    48  Se   7.647478   6.624331   6.302249   5.885601   6.822495
                   11         12         13         14         15
    11  N    0.000000
    12  C    1.467392   0.000000
    13  C    2.468393   1.533743   0.000000
    14  O    3.544163   2.406244   1.221697   0.000000
    15  C    2.545864   1.552399   2.464939   3.162019   0.000000
    16  S    3.375149   2.923433   3.297589   4.157301   1.852285
    17  N    2.774286   2.451030   1.373494   2.289229   3.155394
    18  C    4.218914   3.743878   2.454866   2.844734   4.107346
    19  C    4.772861   4.303993   3.374150   3.881176   4.128275
    20  C    5.034168   4.891832   3.614487   3.984084   5.480494
    21  O    5.460323   5.559732   4.483288   5.046244   6.045575
    22  N    5.663715   5.467784   4.069238   4.135461   6.277616
    23  C    5.789840   5.348844   3.876316   3.540667   6.258101
    24  C    6.722301   6.430504   5.063796   4.692067   7.517066
    25  O    7.285655   7.200129   5.892344   5.696004   8.325844
    26  O    7.182104   6.736772   5.431649   4.808854   7.855375
    27  H    5.113444   5.743660   6.570225   6.961195   6.957331
    28  H    4.937972   5.101063   5.871437   6.005960   6.258218
    29  H    2.988239   3.878686   4.639388   5.282524   5.200436
    30  H    4.155747   4.906384   6.170718   6.823289   5.700388
    31  H    6.248494   6.431079   7.581291   7.816515   7.144935
    32  H    6.217135   6.654659   7.971713   8.426859   7.223230
    33  H    3.369634   4.160945   5.615439   6.486772   4.448084
    34  H    2.822397   3.206936   4.691453   5.580433   2.971013
    35  H    3.534453   3.161579   4.589617   5.021728   3.102067
    36  H    2.837979   2.195295   3.438385   4.121963   1.093780
    37  H    3.453388   2.160552   2.655268   2.926236   1.093516
    38  H    2.117523   1.094569   2.121228   2.520439   2.155255
    39  H    1.015731   2.102970   2.510821   3.576712   3.354605
    40  H    5.852187   5.309924   4.269275   4.560631   5.073368
    41  H    4.756626   4.606977   3.893317   4.629404   4.448857
    42  H    4.692524   3.920199   2.472093   2.356806   4.267996
    43  H    2.397602   2.512153   2.036313   3.152773   3.066210
    44  H    6.457846   5.808515   4.284915   3.729361   6.526471
    45  H    4.931325   4.408053   2.977494   2.574095   5.412522
    46  H    6.328489   6.296550   4.965276   5.082245   7.169767
    47  H    7.895881   7.547991   6.298624   5.717527   8.732466
    48  Se   4.741870   3.951207   3.471040   3.897894   3.148443
                   16         17         18         19         20
    16  S    0.000000
    17  N    3.224549   0.000000
    18  C    3.771711   1.465953   0.000000
    19  C    3.154289   2.452563   1.535773   0.000000
    20  C    5.058076   2.447958   1.542458   2.523246   0.000000
    21  O    5.311512   3.161782   2.410685   2.800343   1.225723
    22  N    6.159345   3.200521   2.474454   3.718521   1.361088
    23  C    6.515734   3.490294   2.965454   4.383284   2.530177
    24  C    7.899583   4.755139   4.413850   5.844758   3.722586
    25  O    8.570278   5.385113   5.035115   6.396091   4.017477
    26  O    8.493341   5.448315   5.232695   6.689284   4.835574
    27  H    8.336986   7.250121   8.641606   9.628162   9.077237
    28  H    7.875963   6.823543   8.146757   9.162300   8.781313
    29  H    6.343062   5.106131   6.523296   7.452476   6.937245
    30  H    6.943148   6.822733   8.285695   8.917255   8.972278
    31  H    8.762451   8.585313   9.967646  10.724614  10.792771
    32  H    8.634574   8.824219  10.259240  10.860872  11.071968
    33  H    5.346458   6.106116   7.507732   7.780335   8.354447
    34  H    3.764608   5.189195   6.461259   6.504120   7.515237
    35  H    4.698072   5.604440   6.845942   7.156524   8.050530
    36  H    2.359315   4.134727   5.161125   5.101556   6.489258
    37  H    2.430697   3.546663   4.246567   4.272277   5.728575
    38  H    3.843101   3.311320   4.549927   5.238167   5.675913
    39  H    3.964334   2.498570   3.932288   4.698953   4.466690
    40  H    4.061833   3.403472   2.173682   1.096318   2.810514
    41  H    3.195825   2.766999   2.172126   1.092182   2.705599
    42  H    4.233411   2.056809   1.091384   2.170426   2.195083
    43  H    2.806170   1.015126   2.093154   2.573149   2.858066
    44  H    6.748314   4.016190   3.221491   4.451665   3.022800
    45  H    5.913068   2.890840   2.771742   4.277880   2.814596
    46  H    6.990860   4.035450   3.387355   4.510139   2.021093
    47  H    9.387742   6.287882   6.109776   7.572517   5.576635
    48  Se   2.095936   3.189607   2.862191   1.847096   4.227462
                   21         22         23         24         25
    21  O    0.000000
    22  N    2.269066   0.000000
    23  C    3.637116   1.449191   0.000000
    24  C    4.634472   2.410964   1.518446   0.000000
    25  O    4.663478   2.701260   2.423528   1.210974   0.000000
    26  O    5.853051   3.603384   2.363257   1.345136   2.258370
    27  H    9.626547   9.071090   8.715101   8.850550   9.272558
    28  H    9.516027   8.720415   8.139465   8.361102   8.989359
    29  H    7.407528   7.095957   6.958098   7.314937   7.721741
    30  H    9.389763   9.327493   9.189122   9.701554  10.198393
    31  H   11.446304  10.935521  10.438246  10.821138  11.482834
    32  H   11.576626  11.375553  11.071946  11.547441  12.132983
    33  H    8.629574   9.011449   9.094818   9.903878  10.430216
    34  H    7.815730   8.319243   8.435946   9.461879  10.087908
    35  H    8.661051   8.595365   8.320623   9.263581  10.079659
    36  H    6.979119   7.302873   7.290231   8.498930   9.288883
    37  H    6.431793   6.425723   6.227039   7.520103   8.439516
    38  H    6.452952   6.059539   5.701239   6.649644   7.495097
    39  H    4.863919   4.992489   5.194507   6.008809   6.465519
    40  H    3.021068   3.872952   4.554133   6.000891   6.526715
    41  H    2.513552   4.048518   4.965331   6.330790   6.716987
    42  H    3.266299   2.624416   2.596660   4.108960   4.936025
    43  H    3.196027   3.820511   4.348863   5.544315   6.034748
    44  H    4.141340   2.129435   1.100403   2.124850   3.088829
    45  H    3.986754   2.127586   1.095706   2.142166   3.142117
    46  H    2.464901   1.015870   2.097792   2.437945   2.241687
    47  H    6.504758   4.284901   3.202485   1.877166   2.307281
    48  Se   4.612161   5.293352   5.624682   7.128580   7.858668
                   26         27         28         29         30
    26  O    0.000000
    27  H    8.767892   0.000000
    28  H    8.089671   1.775814   0.000000
    29  H    7.506362   2.306345   2.825506   0.000000
    30  H    9.817116   2.479563   3.052514   2.547568   0.000000
    31  H   10.575855   3.066634   2.593808   4.509176   2.908309
    32  H   11.471600   3.477624   3.667153   4.630206   2.321407
    33  H   10.216178   4.540201   4.795261   3.566342   2.206268
    34  H    9.822689   5.768866   5.608291   4.381742   3.695555
    35  H    9.310672   5.252063   4.438832   4.436770   3.652495
    36  H    8.801362   6.791724   6.145106   5.222100   5.218191
    37  H    7.730649   7.502900   6.572182   5.898440   6.401190
    38  H    6.744842   5.169196   4.267613   3.642972   4.506064
    39  H    6.556280   5.086917   5.068744   2.815549   4.537076
    40  H    6.858834  10.637671  10.119066   8.479695   9.993136
    41  H    7.298550   9.694413   9.419942   7.441458   8.873048
    42  H    4.715690   8.822810   8.125269   6.851010   8.601608
    43  H    6.323164   7.201557   6.970670   4.958808   6.525214
    44  H    2.609187   9.523691   8.796146   7.811623   9.931926
    45  H    2.589150   7.778339   7.117044   6.059692   8.216515
    46  H    3.768752   9.467575   9.254055   7.523112   9.852649
    47  H    0.976271   9.057362   8.461530   7.938261  10.302524
    48  Se   7.740035   9.664074   9.016851   7.631978   8.633679
                   31         32         33         34         35
    31  H    0.000000
    32  H    1.625572   0.000000
    33  H    4.594633   3.777942   0.000000
    34  H    5.665867   5.133345   1.757205   0.000000
    35  H    4.387174   4.432595   2.905059   2.289938   0.000000
    36  H    6.637794   6.561082   3.757554   2.149097   2.377979
    37  H    7.469149   7.723753   5.310258   3.848301   3.418530
    38  H    5.599739   6.021029   4.135594   3.411121   2.626704
    39  H    6.686623   6.716017   4.064009   3.763554   4.454742
    40  H   11.730235  11.914895   8.865237   7.552634   8.130493
    41  H   10.921067  10.911089   7.624831   6.415352   7.402304
    42  H    9.993917  10.440389   7.953401   6.876369   6.911302
    43  H    8.561697   8.612475   5.592120   4.676486   5.497749
    44  H   11.033402  11.726371   9.757869   8.958479   8.714126
    45  H    9.379165  10.039109   8.172801   7.540341   7.290382
    46  H   11.535502  11.951906   9.617572   9.037107   9.409853
    47  H   11.001965  11.930331  10.846330  10.567061  10.051684
    48  Se  10.226475  10.332959   7.279478   5.746442   6.230729
                   36         37         38         39         40
    36  H    0.000000
    37  H    1.761127   0.000000
    38  H    2.518776   2.423951   0.000000
    39  H    3.802397   4.180151   2.716331   0.000000
    40  H    6.051678   5.068342   6.186711   5.748113   0.000000
    41  H    5.307050   4.820621   5.637640   4.627148   1.758727
    42  H    5.360324   4.138952   4.527470   4.483077   2.501281
    43  H    3.902717   3.721999   3.529815   2.156693   3.630105
    44  H    7.592158   6.324435   6.127567   5.982840   4.409278
    45  H    6.409961   5.378345   4.664354   4.406898   4.662963
    46  H    8.166563   7.382979   6.889266   5.558656   4.601592
    47  H    9.652869   8.642854   7.521266   7.213625   7.733413
    48  Se   4.004824   3.064316   4.790077   5.050495   2.359358
                   41         42         43         44         45
    41  H    0.000000
    42  H    3.074030   0.000000
    43  H    2.496237   2.921394   0.000000
    44  H    5.197537   2.553582   4.934196   0.000000
    45  H    4.901596   2.344247   3.819999   1.758274   0.000000
    46  H    4.676439   3.630339   4.525701   2.791502   2.901767
    47  H    8.126427   5.653429   7.116477   3.489402   3.488873
    48  Se   2.445531   3.058589   3.247062   5.562208   5.257144
                   46         47         48
    46  H    0.000000
    47  H    4.252446   0.000000
    48  Se   6.184594   8.682728   0.000000
 Stoichiometry    C13H21N5O7SSe
 Framework group  C1[X(C13H21N5O7SSe)]
 Deg. of freedom   138
 Full point group                 C1      NOp   1
 Largest Abelian subgroup         C1      NOp   1
 Largest concise Abelian subgroup C1      NOp   1
                         Standard orientation:                         
 ---------------------------------------------------------------------
 Center     Atomic      Atomic             Coordinates (Angstroms)
 Number     Number       Type             X           Y           Z
 ---------------------------------------------------------------------
      1          7           0        6.725735    1.540985   -0.065500
      2          6           0        5.329382    1.194568    0.206270
      3          6           0        4.786137    0.207407   -0.843312
      4          8           0        5.064734    0.356928   -2.027689
      5          6           0        4.498646    2.496363    0.159484
      6          8           0        3.125604    2.299801    0.461021
      7          7           0        3.997061   -0.853348   -0.455755
      8          6           0        3.592909   -1.248617    0.884249
      9          6           0        2.520096   -0.357174    1.531213
     10          8           0        2.793291    0.277190    2.547657
     11          7           0        1.255230   -0.287306    0.996606
     12          6           0        0.826140   -0.563976   -0.379103
     13          6           0       -0.570238    0.015640   -0.637057
     14          8           0       -0.879473    0.461414   -1.731682
     15          6           0        0.739301   -2.069806   -0.746361
     16         16           0       -0.375141   -3.150378    0.264253
     17          7           0       -1.450607   -0.113919    0.409199
     18          6           0       -2.874707   -0.328774    0.135711
     19          6           0       -3.226266   -1.805246    0.370303
     20          6           0       -3.704814    0.569806    1.075207
     21          8           0       -4.056505    0.165975    2.177763
     22          7           0       -3.987062    1.825226    0.631567
     23          6           0       -3.585606    2.451366   -0.612192
     24          6           0       -3.748143    3.954698   -0.473429
     25          8           0       -4.201354    4.514752    0.499914
     26          8           0       -3.340217    4.590425   -1.586459
     27          1           0        4.974032    3.218686    0.835839
     28          1           0        4.537671    2.902678   -0.856272
     29          1           0        3.063246    2.057302    1.400915
     30          1           0        5.263682    0.786274    1.220163
     31          1           0        6.813711    1.677811   -1.073487
     32          1           0        7.327651    0.749833    0.158262
     33          1           0        4.438373   -1.228587    1.576282
     34          1           0        3.243278   -2.284431    0.838238
     35          1           0        3.738744   -1.447227   -1.234783
     36          1           0        1.716084   -2.552445   -0.649870
     37          1           0        0.440395   -2.149480   -1.795211
     38          1           0        1.498158   -0.083276   -1.097018
     39          1           0        0.744363    0.461322    1.455170
     40          1           0       -4.265765   -1.998136    0.080221
     41          1           0       -3.140438   -2.052285    1.430712
     42          1           0       -3.025533   -0.066285   -0.912845
     43          1           0       -1.108889   -0.616848    1.222078
     44          1           0       -4.203431    2.131182   -1.464636
     45          1           0       -2.547319    2.228461   -0.882092
     46          1           0       -4.449680    2.435220    1.299312
     47          1           0       -3.479999    5.544637   -1.434649
     48         34           0       -2.261890   -3.015272   -0.638449
 ---------------------------------------------------------------------
 Rotational constants (GHZ):      0.1700978      0.0897446      0.0666900
 General basis read from cards:  (5D, 7F)
 There are   466 symmetry adapted cartesian basis functions of A   symmetry.
 There are   438 symmetry adapted basis functions of A   symmetry.
   438 basis functions,   919 primitive gaussians,   466 cartesian basis functions
   120 alpha electrons      120 beta electrons
       nuclear repulsion energy      3449.0590674497 Hartrees.
 NAtoms=   48 NActive=   48 NUniq=   48 SFac= 1.00D+00 NAtFMM=   60 NAOKFM=F Big=F
 Integral buffers will be    131072 words long.
 Raffenetti 2 integral format.
 Two-electron integral symmetry is turned on.
 One-electron integrals computed using PRISM.
 NBasis=   438 RedAO= T EigKep=  2.45D-03  NBF=   438
 NBsUse=   438 1.00D-06 EigRej= -1.00D+00 NBFU=   438
 ExpMin= 1.17D-01 ExpMax= 5.61D+05 ExpMxC= 5.42D+03 IAcc=2 IRadAn=         4 AccDes= 0.00D+00
 Harris functional with IExCor=  402 and IRadAn=       4 diagonalized for initial guess.
 HarFok:  IExCor=  402 AccDes= 0.00D+00 IRadAn=         4 IDoV= 1 UseB2=F ITyADJ=14
 ICtDFT=  3500011 ScaDFX=  1.000000  1.000000  1.000000  1.000000
 FoFCou: FMM=F IPFlag=           0 FMFlag=      100000 FMFlg1=           0
         NFxFlg=           0 DoJE=T BraDBF=F KetDBF=T FulRan=T
         wScrn=  0.000000 ICntrl=     500 IOpCl=  0 I1Cent=   200000004 NGrid=           0
         NMat0=    1 NMatS0=      1 NMatT0=    0 NMatD0=    1 NMtDS0=    0 NMtDT0=    0
 Petite list used in FoFCou.
 Requested convergence on RMS density matrix=1.00D-08 within 128 cycles.
 Requested convergence on MAX density matrix=1.00D-06.
 Requested convergence on             energy=1.00D-06.
 No special actions if energy rises.
 Integral accuracy reduced to 1.0D-05 until final iterations.
 EnCoef did     1 forward-backward iterations
 Initial convergence to 1.0D-05 achieved.  Increase integral accuracy.
 SCF Done:  E(RB3LYP) =  -4105.46048696     A.U. after   16 cycles
            NFock= 16  Conv=0.37D-08     -V/T= 2.0000

 **********************************************************************

            Population analysis using the SCF density.

 **********************************************************************

 Orbital symmetries:
       Occupied  (A) (A) (A) (A) (A) (A) (A) (A) (A) (A) (A) (A)
                 (A) (A) (A) (A) (A) (A) (A) (A) (A) (A) (A) (A)
                 (A) (A) (A) (A) (A) (A) (A) (A) (A) (A) (A) (A)
                 (A) (A) (A) (A) (A) (A) (A) (A) (A) (A) (A) (A)
                 (A) (A) (A) (A) (A) (A) (A) (A) (A) (A) (A) (A)
                 (A) (A) (A) (A) (A) (A) (A) (A) (A) (A) (A) (A)
                 (A) (A) (A) (A) (A) (A) (A) (A) (A) (A) (A) (A)
                 (A) (A) (A) (A) (A) (A) (A) (A) (A) (A) (A) (A)
                 (A) (A) (A) (A) (A) (A) (A) (A) (A) (A) (A) (A)
                 (A) (A) (A) (A) (A) (A) (A) (A) (A) (A) (A) (A)
       Virtual   (A) (A) (A) (A) (A) (A) (A) (A) (A) (A) (A) (A)
                 (A) (A) (A) (A) (A) (A) (A) (A) (A) (A) (A) (A)
                 (A) (A) (A) (A) (A) (A) (A) (A) (A) (A) (A) (A)
                 (A) (A) (A) (A) (A) (A) (A) (A) (A) (A) (A) (A)
                 (A) (A) (A) (A) (A) (A) (A) (A) (A) (A) (A) (A)
                 (A) (A) (A) (A) (A) (A) (A) (A) (A) (A) (A) (A)
                 (A) (A) (A) (A) (A) (A) (A) (A) (A) (A) (A) (A)
                 (A) (A) (A) (A) (A) (A) (A) (A) (A) (A) (A) (A)
                 (A) (A) (A) (A) (A) (A) (A) (A) (A) (A) (A) (A)
                 (A) (A) (A) (A) (A) (A) (A) (A) (A) (A) (A) (A)
                 (A) (A) (A) (A) (A) (A) (A) (A) (A) (A) (A) (A)
                 (A) (A) (A) (A) (A) (A) (A) (A) (A) (A) (A) (A)
                 (A) (A) (A) (A) (A) (A) (A) (A) (A) (A) (A) (A)
                 (A) (A) (A) (A) (A) (A) (A) (A) (A) (A) (A) (A)
                 (A) (A) (A) (A) (A) (A) (A) (A) (A) (A) (A) (A)
                 (A) (A) (A) (A) (A) (A) (A) (A) (A) (A) (A) (A)
                 (A) (A) (A) (A) (A) (A) (A) (A) (A) (A) (A) (A)
                 (A) (A) (A) (A) (A) (A) (A) (A) (A) (A) (A) (A)
                 (A) (A) (A) (A) (A) (A) (A) (A) (A) (A) (A) (A)
                 (A) (A) (A) (A) (A) (A) (A) (A) (A) (A) (A) (A)
                 (A) (A) (A) (A) (A) (A) (A) (A) (A) (A) (A) (A)
                 (A) (A) (A) (A) (A) (A) (A) (A) (A) (A) (A) (A)
                 (A) (A) (A) (A) (A) (A) (A) (A) (A) (A) (A) (A)
                 (A) (A) (A) (A) (A) (A) (A) (A) (A) (A) (A) (A)
                 (A) (A) (A) (A) (A) (A) (A) (A) (A) (A) (A) (A)
                 (A) (A) (A) (A) (A) (A) (A) (A) (A) (A) (A) (A)
                 (A) (A) (A) (A) (A) (A)
 The electronic state is 1-A.
 Alpha  occ. eigenvalues -- -453.58577 -88.89198 -57.30675 -52.08247 -52.08085
 Alpha  occ. eigenvalues --  -52.07817 -19.21657 -19.16517 -19.14475 -19.14263
 Alpha  occ. eigenvalues --  -19.13934 -19.12345 -19.12119 -14.38394 -14.38328
 Alpha  occ. eigenvalues --  -14.37648 -14.36886 -14.31282 -10.34673 -10.31662
 Alpha  occ. eigenvalues --  -10.31597 -10.29963 -10.29231 -10.26473 -10.25546
 Alpha  occ. eigenvalues --  -10.25384 -10.25258 -10.24468 -10.22446 -10.22438
 Alpha  occ. eigenvalues --  -10.22085  -7.96905  -7.66085  -5.93347  -5.92933
 Alpha  occ. eigenvalues --   -5.92269  -5.79271  -5.78655  -5.77774  -2.15423
 Alpha  occ. eigenvalues --   -2.15345  -2.14576  -2.14083  -2.13970  -1.13351
 Alpha  occ. eigenvalues --   -1.06926  -1.06422  -1.04809  -1.04491  -1.04315
 Alpha  occ. eigenvalues --   -1.01729  -0.96551  -0.94774  -0.93974  -0.93608
 Alpha  occ. eigenvalues --   -0.89070  -0.84171  -0.82146  -0.77127  -0.76050
 Alpha  occ. eigenvalues --   -0.75440  -0.73112  -0.72866  -0.66420  -0.65292
 Alpha  occ. eigenvalues --   -0.64140  -0.62117  -0.61635  -0.59936  -0.59564
 Alpha  occ. eigenvalues --   -0.57884  -0.56409  -0.53679  -0.52559  -0.52328
 Alpha  occ. eigenvalues --   -0.52036  -0.51424  -0.50894  -0.50615  -0.50334
 Alpha  occ. eigenvalues --   -0.49972  -0.48889  -0.47117  -0.46869  -0.46400
 Alpha  occ. eigenvalues --   -0.45655  -0.45484  -0.45267  -0.44398  -0.43916
 Alpha  occ. eigenvalues --   -0.43730  -0.43013  -0.42721  -0.42163  -0.41825
 Alpha  occ. eigenvalues --   -0.41435  -0.40782  -0.40152  -0.40091  -0.38999
 Alpha  occ. eigenvalues --   -0.38838  -0.37716  -0.37602  -0.36644  -0.34491
 Alpha  occ. eigenvalues --   -0.33456  -0.32935  -0.30749  -0.30089  -0.29874
 Alpha  occ. eigenvalues --   -0.28879  -0.28082  -0.27524  -0.26936  -0.26783
 Alpha  occ. eigenvalues --   -0.26629  -0.26330  -0.25935  -0.24133  -0.23941
 Alpha virt. eigenvalues --   -0.03232  -0.02815  -0.01550  -0.01066   0.00440
 Alpha virt. eigenvalues --    0.00598   0.01730   0.04626   0.04875   0.05577
 Alpha virt. eigenvalues --    0.06857   0.08258   0.08838   0.09476   0.10090
 Alpha virt. eigenvalues --    0.10739   0.11220   0.11597   0.12265   0.12603
 Alpha virt. eigenvalues --    0.13268   0.14147   0.14448   0.15020   0.15423
 Alpha virt. eigenvalues --    0.16743   0.17328   0.17466   0.17884   0.18631
 Alpha virt. eigenvalues --    0.18909   0.19301   0.19711   0.20115   0.20790
 Alpha virt. eigenvalues --    0.21714   0.21998   0.22750   0.23991   0.24279
 Alpha virt. eigenvalues --    0.24759   0.25097   0.26285   0.27595   0.29379
 Alpha virt. eigenvalues --    0.30825   0.31683   0.32634   0.33525   0.34845
 Alpha virt. eigenvalues --    0.35031   0.35738   0.36412   0.37063   0.37690
 Alpha virt. eigenvalues --    0.38791   0.39999   0.41617   0.41941   0.42766
 Alpha virt. eigenvalues --    0.43514   0.45026   0.46972   0.47540   0.48197
 Alpha virt. eigenvalues --    0.49617   0.50863   0.51555   0.52415   0.53182
 Alpha virt. eigenvalues --    0.53400   0.53994   0.54767   0.55436   0.55780
 Alpha virt. eigenvalues --    0.56419   0.56808   0.57206   0.58463   0.60617
 Alpha virt. eigenvalues --    0.61241   0.61289   0.61726   0.63130   0.63504
 Alpha virt. eigenvalues --    0.64005   0.64994   0.65514   0.66332   0.66691
 Alpha virt. eigenvalues --    0.67370   0.67867   0.69122   0.69273   0.70309
 Alpha virt. eigenvalues --    0.71830   0.71968   0.72614   0.73022   0.74197
 Alpha virt. eigenvalues --    0.74929   0.75002   0.75865   0.76752   0.77389
 Alpha virt. eigenvalues --    0.78048   0.79189   0.79640   0.80350   0.80856
 Alpha virt. eigenvalues --    0.81086   0.81869   0.82371   0.82790   0.83329
 Alpha virt. eigenvalues --    0.83966   0.84440   0.85128   0.86053   0.86282
 Alpha virt. eigenvalues --    0.86938   0.87109   0.87902   0.88145   0.88789
 Alpha virt. eigenvalues --    0.89270   0.90248   0.90503   0.90712   0.91307
 Alpha virt. eigenvalues --    0.92126   0.92629   0.92743   0.93263   0.93511
 Alpha virt. eigenvalues --    0.93612   0.94458   0.94778   0.95645   0.96443
 Alpha virt. eigenvalues --    0.97127   0.97966   0.98797   0.99647   0.99734
 Alpha virt. eigenvalues --    1.00985   1.01889   1.02905   1.03969   1.04890
 Alpha virt. eigenvalues --    1.05541   1.06199   1.07850   1.08662   1.09741
 Alpha virt. eigenvalues --    1.10235   1.11380   1.12011   1.12366   1.14182
 Alpha virt. eigenvalues --    1.15205   1.15952   1.16198   1.17263   1.18283
 Alpha virt. eigenvalues --    1.19735   1.22250   1.23329   1.23941   1.26368
 Alpha virt. eigenvalues --    1.28146   1.29474   1.29827   1.31757   1.33688
 Alpha virt. eigenvalues --    1.34349   1.36277   1.36898   1.37546   1.38297
 Alpha virt. eigenvalues --    1.40408   1.40617   1.41240   1.44223   1.46746
 Alpha virt. eigenvalues --    1.47402   1.48623   1.50747   1.51648   1.54148
 Alpha virt. eigenvalues --    1.54419   1.55561   1.57186   1.58321   1.59999
 Alpha virt. eigenvalues --    1.61560   1.62132   1.63621   1.63830   1.65116
 Alpha virt. eigenvalues --    1.67270   1.68120   1.69137   1.69876   1.70610
 Alpha virt. eigenvalues --    1.72273   1.73034   1.74184   1.74619   1.75483
 Alpha virt. eigenvalues --    1.76618   1.77418   1.77591   1.78781   1.79587
 Alpha virt. eigenvalues --    1.80227   1.81001   1.81363   1.82414   1.82877
 Alpha virt. eigenvalues --    1.83693   1.84414   1.85360   1.86884   1.87394
 Alpha virt. eigenvalues --    1.88227   1.89720   1.90299   1.90898   1.91435
 Alpha virt. eigenvalues --    1.92514   1.93142   1.94040   1.94538   1.95743
 Alpha virt. eigenvalues --    1.96805   1.97682   1.98316   1.98645   2.00310
 Alpha virt. eigenvalues --    2.01889   2.02389   2.02600   2.03073   2.04353
 Alpha virt. eigenvalues --    2.05567   2.07426   2.08000   2.08376   2.09908
 Alpha virt. eigenvalues --    2.10858   2.11721   2.13606   2.15181   2.15645
 Alpha virt. eigenvalues --    2.17471   2.17843   2.18427   2.19858   2.20458
 Alpha virt. eigenvalues --    2.21122   2.24075   2.25971   2.26494   2.28643
 Alpha virt. eigenvalues --    2.30367   2.31346   2.33390   2.34560   2.35595
 Alpha virt. eigenvalues --    2.37780   2.38673   2.40301   2.40612   2.41501
 Alpha virt. eigenvalues --    2.43052   2.43455   2.44928   2.46104   2.49018
 Alpha virt. eigenvalues --    2.49797   2.51325   2.51823   2.52521   2.55169
 Alpha virt. eigenvalues --    2.56744   2.58778   2.59633   2.60658   2.62981
 Alpha virt. eigenvalues --    2.63567   2.65033   2.65336   2.66430   2.68006
 Alpha virt. eigenvalues --    2.70466   2.71160   2.72591   2.74104   2.80062
 Alpha virt. eigenvalues --    2.83601   2.83843   2.87662   2.89602   2.91685
 Alpha virt. eigenvalues --    2.93161   2.94853   2.95814   2.97830   3.00244
 Alpha virt. eigenvalues --    3.02654   3.03152   3.05990   3.06301   3.11565
 Alpha virt. eigenvalues --    3.14389   3.16460   7.84970
          Condensed to atoms (all electrons):
               1          2          3          4          5          6
     1  N    6.896772   0.310663  -0.045938  -0.015015  -0.046842   0.002223
     2  C    0.310663   5.236089   0.295330  -0.081483   0.318104  -0.050099
     3  C   -0.045938   0.295330   4.436905   0.620462  -0.043417   0.008838
     4  O   -0.015015  -0.081483   0.620462   8.003113  -0.003471  -0.000247
     5  C   -0.046842   0.318104  -0.043417  -0.003471   4.845077   0.271195
     6  O    0.002223  -0.050099   0.008838  -0.000247   0.271195   8.251621
     7  N    0.003370  -0.088478   0.257413  -0.094638   0.002878   0.000222
     8  C   -0.000339   0.007337  -0.023087   0.003443  -0.000278  -0.003550
     9  C    0.000082  -0.002817  -0.001040  -0.000041  -0.000252   0.019752
    10  O    0.000016  -0.001132   0.000160   0.000000  -0.000426  -0.010465
    11  N    0.000000  -0.000157   0.000528   0.000004   0.000323  -0.003345
    12  C    0.000000  -0.000053  -0.000392  -0.000057   0.000031   0.000446
    13  C    0.000000   0.000000  -0.000002   0.000000   0.000000  -0.000072
    14  O    0.000000   0.000000   0.000000   0.000000   0.000000  -0.000001
    15  C    0.000000  -0.000004   0.000033   0.000003   0.000000   0.000026
    16  S    0.000000   0.000000  -0.000001   0.000000   0.000000   0.000000
    17  N    0.000000   0.000000   0.000000   0.000000   0.000000   0.000000
    18  C    0.000000   0.000000   0.000000   0.000000   0.000000   0.000000
    19  C    0.000000   0.000000   0.000000   0.000000   0.000000   0.000000
    20  C    0.000000   0.000000   0.000000   0.000000   0.000000   0.000000
    21  O    0.000000   0.000000   0.000000   0.000000   0.000000   0.000000
    22  N    0.000000   0.000000   0.000000   0.000000   0.000000   0.000000
    23  C    0.000000   0.000000   0.000000   0.000000   0.000000   0.000000
    24  C    0.000000   0.000000   0.000000   0.000000   0.000000   0.000000
    25  O    0.000000   0.000000   0.000000   0.000000   0.000000   0.000000
    26  O    0.000000   0.000000   0.000000   0.000000   0.000000   0.000000
    27  H    0.008730  -0.051013   0.006251   0.000000   0.367570  -0.031853
    28  H   -0.000004  -0.047432  -0.009038   0.006334   0.374363  -0.033824
    29  H   -0.000112   0.000287  -0.001855   0.000006  -0.033313   0.230148
    30  H   -0.032975   0.342480  -0.037662   0.003353  -0.035668  -0.000512
    31  H    0.311228  -0.049105  -0.003841   0.021250  -0.004123  -0.000028
    32  H    0.312505  -0.038257   0.002211   0.000538   0.005661  -0.000086
    33  H    0.000167   0.000199  -0.002979   0.000058  -0.000237   0.000085
    34  H    0.000001  -0.000021   0.002544  -0.000090  -0.000022   0.000003
    35  H   -0.000194   0.007447  -0.008561   0.011955  -0.000221   0.000065
    36  H    0.000000  -0.000006   0.000004  -0.000009   0.000000   0.000001
    37  H    0.000000   0.000000  -0.000001   0.000000   0.000000   0.000000
    38  H    0.000002   0.000008   0.001468   0.000096  -0.000120   0.002517
    39  H    0.000000   0.000001  -0.000026   0.000000  -0.000024   0.000747
    40  H    0.000000   0.000000   0.000000   0.000000   0.000000   0.000000
    41  H    0.000000   0.000000   0.000000   0.000000   0.000000   0.000000
    42  H    0.000000   0.000000   0.000000   0.000000   0.000000   0.000000
    43  H    0.000000   0.000000   0.000000   0.000000   0.000000   0.000000
    44  H    0.000000   0.000000   0.000000   0.000000   0.000000   0.000000
    45  H    0.000000   0.000000   0.000000   0.000000   0.000000   0.000000
    46  H    0.000000   0.000000   0.000000   0.000000   0.000000   0.000000
    47  H    0.000000   0.000000   0.000000   0.000000   0.000000   0.000000
    48  Se   0.000000   0.000000   0.000000   0.000000   0.000000   0.000000
               7          8          9         10         11         12
     1  N    0.003370  -0.000339   0.000082   0.000016   0.000000   0.000000
     2  C   -0.088478   0.007337  -0.002817  -0.001132  -0.000157  -0.000053
     3  C    0.257413  -0.023087  -0.001040   0.000160   0.000528  -0.000392
     4  O   -0.094638   0.003443  -0.000041   0.000000   0.000004  -0.000057
     5  C    0.002878  -0.000278  -0.000252  -0.000426   0.000323   0.000031
     6  O    0.000222  -0.003550   0.019752  -0.010465  -0.003345   0.000446
     7  N    7.088927   0.230682  -0.041714   0.000917   0.002596  -0.000594
     8  C    0.230682   5.219152   0.306375  -0.078690  -0.102861  -0.001517
     9  C   -0.041714   0.306375   4.391437   0.577673   0.286647  -0.010438
    10  O    0.000917  -0.078690   0.577673   8.026269  -0.092030   0.002504
    11  N    0.002596  -0.102861   0.286647  -0.092030   7.111600   0.199413
    12  C   -0.000594  -0.001517  -0.010438   0.002504   0.199413   5.172270
    13  C    0.000287  -0.000046  -0.000556  -0.000140  -0.019443   0.337524
    14  O    0.000000   0.000004  -0.000054   0.000000   0.001681  -0.067316
    15  C   -0.002436   0.000159  -0.005139  -0.000076  -0.050061   0.286724
    16  S    0.000046  -0.000361   0.000926  -0.000024   0.003471  -0.041062
    17  N   -0.000002  -0.000007   0.000353   0.000000  -0.002857  -0.107333
    18  C    0.000000   0.000000   0.000001   0.000000   0.000567   0.005376
    19  C    0.000000   0.000000   0.000000   0.000000  -0.000044  -0.000081
    20  C    0.000000   0.000000   0.000000   0.000000   0.000001  -0.000216
    21  O    0.000000   0.000000   0.000000   0.000000   0.000000   0.000000
    22  N    0.000000   0.000000   0.000000   0.000000   0.000000   0.000004
    23  C    0.000000   0.000000   0.000000   0.000000   0.000002  -0.000044
    24  C    0.000000   0.000000   0.000000   0.000000   0.000000   0.000000
    25  O    0.000000   0.000000   0.000000   0.000000   0.000000   0.000000
    26  O    0.000000   0.000000   0.000000   0.000000   0.000000   0.000000
    27  H   -0.000226  -0.000023   0.000239  -0.000069  -0.000012   0.000000
    28  H    0.000423  -0.000051  -0.000046  -0.000010   0.000003   0.000004
    29  H   -0.000169   0.001788  -0.001777   0.028159  -0.003052  -0.000165
    30  H    0.000854  -0.002937  -0.000221   0.006467   0.000176  -0.000015
    31  H    0.000760  -0.000041  -0.000004   0.000000   0.000000   0.000000
    32  H    0.000341   0.000005  -0.000001   0.000000   0.000000   0.000000
    33  H   -0.034624   0.363079  -0.039362   0.005351   0.004421   0.000112
    34  H   -0.027744   0.349320  -0.027318   0.002472   0.002466  -0.001438
    35  H    0.277846  -0.027101   0.001049  -0.000068  -0.000143  -0.000703
    36  H    0.001100  -0.000266  -0.000687  -0.000003  -0.002479  -0.038785
    37  H   -0.000011  -0.000006   0.000153   0.000001   0.003673  -0.034783
    38  H    0.005112  -0.001066  -0.001273   0.000156  -0.045347   0.359318
    39  H   -0.000546   0.007786  -0.010909   0.009898   0.285912  -0.043183
    40  H    0.000000   0.000000   0.000000   0.000000   0.000000   0.000005
    41  H    0.000000   0.000000   0.000000   0.000000  -0.000011  -0.000020
    42  H    0.000000   0.000000   0.000001   0.000000  -0.000036   0.001318
    43  H    0.000001  -0.000010   0.000093  -0.000044   0.009418  -0.000600
    44  H    0.000000   0.000000   0.000000   0.000000   0.000000  -0.000001
    45  H    0.000000   0.000000   0.000000   0.000000  -0.000014   0.000277
    46  H    0.000000   0.000000   0.000000   0.000000   0.000000   0.000000
    47  H    0.000000   0.000000   0.000000   0.000000   0.000000   0.000000
    48  Se  -0.000001   0.000005  -0.000025   0.000000   0.000103  -0.004926
              13         14         15         16         17         18
     1  N    0.000000   0.000000   0.000000   0.000000   0.000000   0.000000
     2  C    0.000000   0.000000  -0.000004   0.000000   0.000000   0.000000
     3  C   -0.000002   0.000000   0.000033  -0.000001   0.000000   0.000000
     4  O    0.000000   0.000000   0.000003   0.000000   0.000000   0.000000
     5  C    0.000000   0.000000   0.000000   0.000000   0.000000   0.000000
     6  O   -0.000072  -0.000001   0.000026   0.000000   0.000000   0.000000
     7  N    0.000287   0.000000  -0.002436   0.000046  -0.000002   0.000000
     8  C   -0.000046   0.000004   0.000159  -0.000361  -0.000007   0.000000
     9  C   -0.000556  -0.000054  -0.005139   0.000926   0.000353   0.000001
    10  O   -0.000140   0.000000  -0.000076  -0.000024   0.000000   0.000000
    11  N   -0.019443   0.001681  -0.050061   0.003471  -0.002857   0.000567
    12  C    0.337524  -0.067316   0.286724  -0.041062  -0.107333   0.005376
    13  C    4.404823   0.609108  -0.032198  -0.014745   0.265524  -0.023485
    14  O    0.609108   7.975360  -0.001733  -0.000938  -0.092372  -0.005985
    15  C   -0.032198  -0.001733   5.445395   0.202687  -0.007597  -0.000002
    16  S   -0.014745  -0.000938   0.202687  15.637664   0.004509  -0.005461
    17  N    0.265524  -0.092372  -0.007597   0.004509   7.095087   0.281290
    18  C   -0.023485  -0.005985  -0.000002  -0.005461   0.281290   5.228214
    19  C    0.000791   0.000655   0.000544  -0.028131  -0.057620   0.316021
    20  C    0.000687  -0.000415  -0.000017  -0.000257  -0.041741   0.275339
    21  O    0.000008  -0.000001   0.000000  -0.000029  -0.001029  -0.094529
    22  N    0.000129   0.000156   0.000000   0.000001   0.000089  -0.106104
    23  C   -0.000572  -0.005058   0.000000   0.000000   0.001526   0.002814
    24  C    0.000012   0.000031   0.000000   0.000000  -0.000073   0.000057
    25  O    0.000000   0.000000   0.000000   0.000000   0.000001  -0.000030
    26  O   -0.000002   0.000001   0.000000   0.000000   0.000000  -0.000001
    27  H    0.000000   0.000000   0.000000   0.000000   0.000000   0.000000
    28  H    0.000000   0.000000   0.000000   0.000000   0.000000   0.000000
    29  H    0.000000   0.000000  -0.000015   0.000001  -0.000001   0.000000
    30  H    0.000000   0.000000  -0.000001   0.000000   0.000000   0.000000
    31  H    0.000000   0.000000   0.000000   0.000000   0.000000   0.000000
    32  H    0.000000   0.000000   0.000000   0.000000   0.000000   0.000000
    33  H    0.000006   0.000000   0.000074  -0.000010   0.000000   0.000000
    34  H    0.000005   0.000000  -0.001307   0.000736  -0.000001   0.000000
    35  H    0.000002  -0.000001   0.001429  -0.000011   0.000000   0.000000
    36  H    0.004781  -0.000047   0.348608  -0.035969  -0.000156  -0.000001
    37  H   -0.002413   0.003853   0.355382  -0.033005   0.000050   0.000057
    38  H   -0.031844   0.004151  -0.038028   0.005014   0.005361  -0.000097
    39  H   -0.004283   0.000032   0.004599  -0.000712   0.008583  -0.000165
    40  H   -0.000047  -0.000017  -0.000031   0.002607   0.004322  -0.030615
    41  H   -0.000152  -0.000019  -0.000148   0.000786  -0.004349  -0.037320
    42  H   -0.001190   0.017676  -0.000091  -0.000159  -0.049357   0.353403
    43  H   -0.024855   0.002974  -0.002628   0.013813   0.292814  -0.030634
    44  H   -0.000086  -0.000054   0.000000   0.000000   0.000009  -0.000520
    45  H    0.003660   0.015409   0.000002   0.000000  -0.002237  -0.000738
    46  H   -0.000012  -0.000001   0.000000   0.000000  -0.000273   0.007210
    47  H    0.000000   0.000000   0.000000   0.000000   0.000000   0.000000
    48  Se   0.009731  -0.000781  -0.041664   0.187529  -0.016333  -0.060891
              19         20         21         22         23         24
     1  N    0.000000   0.000000   0.000000   0.000000   0.000000   0.000000
     2  C    0.000000   0.000000   0.000000   0.000000   0.000000   0.000000
     3  C    0.000000   0.000000   0.000000   0.000000   0.000000   0.000000
     4  O    0.000000   0.000000   0.000000   0.000000   0.000000   0.000000
     5  C    0.000000   0.000000   0.000000   0.000000   0.000000   0.000000
     6  O    0.000000   0.000000   0.000000   0.000000   0.000000   0.000000
     7  N    0.000000   0.000000   0.000000   0.000000   0.000000   0.000000
     8  C    0.000000   0.000000   0.000000   0.000000   0.000000   0.000000
     9  C    0.000000   0.000000   0.000000   0.000000   0.000000   0.000000
    10  O    0.000000   0.000000   0.000000   0.000000   0.000000   0.000000
    11  N   -0.000044   0.000001   0.000000   0.000000   0.000002   0.000000
    12  C   -0.000081  -0.000216   0.000000   0.000004  -0.000044   0.000000
    13  C    0.000791   0.000687   0.000008   0.000129  -0.000572   0.000012
    14  O    0.000655  -0.000415  -0.000001   0.000156  -0.005058   0.000031
    15  C    0.000544  -0.000017   0.000000   0.000000   0.000000   0.000000
    16  S   -0.028131  -0.000257  -0.000029   0.000001   0.000000   0.000000
    17  N   -0.057620  -0.041741  -0.001029   0.000089   0.001526  -0.000073
    18  C    0.316021   0.275339  -0.094529  -0.106104   0.002814   0.000057
    19  C    5.206100  -0.030066   0.001035   0.003391  -0.000093  -0.000007
    20  C   -0.030066   4.342800   0.639334   0.313735  -0.019752   0.002521
    21  O    0.001035   0.639334   7.982072  -0.088972   0.002862  -0.000064
    22  N    0.003391   0.313735  -0.088972   7.052389   0.239909  -0.024934
    23  C   -0.000093  -0.019752   0.002862   0.239909   5.187614   0.304377
    24  C   -0.000007   0.002521  -0.000064  -0.024934   0.304377   4.304155
    25  O    0.000000   0.000652  -0.000001  -0.006555  -0.089838   0.627763
    26  O    0.000000  -0.000017   0.000000   0.001417  -0.088888   0.306295
    27  H    0.000000   0.000000   0.000000   0.000000   0.000000   0.000000
    28  H    0.000000   0.000000   0.000000   0.000000   0.000000   0.000000
    29  H    0.000000   0.000000   0.000000   0.000000   0.000000   0.000000
    30  H    0.000000   0.000000   0.000000   0.000000   0.000000   0.000000
    31  H    0.000000   0.000000   0.000000   0.000000   0.000000   0.000000
    32  H    0.000000   0.000000   0.000000   0.000000   0.000000   0.000000
    33  H    0.000000   0.000000   0.000000   0.000000   0.000000   0.000000
    34  H    0.000000   0.000000   0.000000   0.000000   0.000000   0.000000
    35  H    0.000000   0.000000   0.000000   0.000000   0.000000   0.000000
    36  H   -0.000033   0.000000   0.000000   0.000000   0.000000   0.000000
    37  H   -0.000118  -0.000001   0.000000   0.000000   0.000000   0.000000
    38  H   -0.000013   0.000002   0.000000   0.000000   0.000001   0.000000
    39  H    0.000041  -0.000004   0.000000   0.000000   0.000007   0.000000
    40  H    0.356647  -0.001403   0.000011   0.000093  -0.000017   0.000000
    41  H    0.358516  -0.004497   0.013172   0.000398  -0.000012   0.000000
    42  H   -0.034612  -0.026521   0.002671  -0.000250   0.001179   0.000330
    43  H   -0.003784  -0.000730   0.001822   0.000013  -0.000032   0.000003
    44  H    0.000120  -0.001251   0.000014  -0.043640   0.361486  -0.026313
    45  H    0.000086  -0.003506   0.000019  -0.034727   0.345865  -0.012551
    46  H   -0.000137  -0.009699   0.006548   0.283704  -0.042901  -0.003598
    47  H    0.000000  -0.000001   0.000000  -0.000190   0.010246  -0.015381
    48  Se   0.279310   0.005911   0.000524  -0.000167  -0.000029   0.000000
              25         26         27         28         29         30
     1  N    0.000000   0.000000   0.008730  -0.000004  -0.000112  -0.032975
     2  C    0.000000   0.000000  -0.051013  -0.047432   0.000287   0.342480
     3  C    0.000000   0.000000   0.006251  -0.009038  -0.001855  -0.037662
     4  O    0.000000   0.000000   0.000000   0.006334   0.000006   0.003353
     5  C    0.000000   0.000000   0.367570   0.374363  -0.033313  -0.035668
     6  O    0.000000   0.000000  -0.031853  -0.033824   0.230148  -0.000512
     7  N    0.000000   0.000000  -0.000226   0.000423  -0.000169   0.000854
     8  C    0.000000   0.000000  -0.000023  -0.000051   0.001788  -0.002937
     9  C    0.000000   0.000000   0.000239  -0.000046  -0.001777  -0.000221
    10  O    0.000000   0.000000  -0.000069  -0.000010   0.028159   0.006467
    11  N    0.000000   0.000000  -0.000012   0.000003  -0.003052   0.000176
    12  C    0.000000   0.000000   0.000000   0.000004  -0.000165  -0.000015
    13  C    0.000000  -0.000002   0.000000   0.000000   0.000000   0.000000
[...]
 0000879,0.00002946,-0.00001041,0.00002377,-0.00010775,-0.00000145,-0.0
 0013454,-0.00008547,0.00000380,0.00002519,0.00000581,-0.00001790,0.000
 42838,0.00008715,0.00021044,-0.00015012,-0.00016261,-0.00022349,-0.000
 55491,0.00005025,-0.00013186,0.00010515,0.00010789,-0.00019155,0.00110
 205,-0.00205015,0.00276311,-0.00130005,0.00128466,-0.00084841,-0.00009
 527,-0.00013787,-0.00007489,0.00001853,0.00003326,0.00006150,0.0008519
 3,0.00047544,-0.00097752,-0.00063509,-0.00112678,0.00025494,0.00002260
 ,-0.00013747,-0.00014125,-0.00196549,0.00389554,-0.00086131,0.00057949
 ,-0.00129886,0.00127718,-0.01610823,0.00131612,0.01018197,0.04264641,-
 0.05563327,-0.00823533,0.03583480,-0.00132194,-0.00860196,-0.00296159,
 -0.00545059,-0.00193674,-0.00241401,-0.00055014,0.00055577,-0.00000504
 ,-0.00000996,-0.00000553,-0.00000619,0.00000162,0.00000933,-0.00000878
 ,0.00008426,-0.00000325,0.00000865,-0.00000271,0.00000397,0.00000497,0
 .00001695,0.00000556,0.00000672,0.00000420,0.00000335,-0.00001362,-0.0
 0000181,0.00000224,0.00000539,-0.00001381,0.00001148,0.00003980,-0.000
 01493,-0.00000903,-0.00001604,0.00008074,-0.00000246,0.00003160,-0.000
 05025,-0.00002637,0.00003104,0.00002330,-0.00001474,0.00004732,0.00007
 942,0.00003063,0.00003581,0.00009200,0.00002438,-0.00004525,0.00014119
 ,-0.00000374,-0.00028013,-0.00214018,0.00018887,0.00005996,0.00017146,
 0.00014555,-0.01287669,0.00369449,0.00154882,-0.04042682,0.06090312,-0
 .00000097,-0.00001870,-0.00000728,0.00001008,0.00000440,-0.00000027,0.
 00003779,0.00005957,0.00000738,-0.00002134,-0.00002492,-0.00000305,-0.
 00003894,0.00000394,0.00001526,0.00006461,-0.00004827,-0.00002754,-0.0
 0004465,-0.00002883,-0.00000919,0.00000960,0.00000840,0.00000370,0.000
 14483,0.00004675,0.00005938,-0.00004602,-0.00008874,-0.00008770,-0.000
 23018,0.00001225,-0.00004974,0.00000367,0.00010302,-0.00013709,-0.0009
 4852,-0.00029158,0.00286409,-0.00034401,0.00089987,-0.00186329,-0.0000
 3099,-0.00003467,-0.00003314,-0.00000137,0.00000891,-0.00000482,0.0005
 3293,-0.00049841,-0.00111534,0.00029268,0.00089502,0.00032269,-0.00000
 313,-0.00000522,0.00007147,0.00146905,-0.00256059,0.00148771,-0.000698
 49,0.00069221,-0.00094925,0.02810710,-0.00317698,-0.01576833,0.0588159
 5,-0.00429794,-0.06343230,0.00491338,-0.00579445,-0.00247478,-0.000604
 04,-0.00022234,0.00079099,-0.00002018,0.00214941,-0.00047780,0.0000020
 1,-0.00000365,-0.00000429,0.00000200,0.00000350,0.00000115,-0.00003198
 ,0.00004619,-0.00000200,0.00000181,-0.00000031,0.00000016,0.00000257,0
 .00000791,0.00000359,0.00000428,0.00000129,0.00000076,-0.00000306,-0.0
 0000188,-0.00000141,0.00000406,-0.00000805,0.00000238,0.00001932,-0.00
 000458,-0.00000139,-0.00001280,0.00002071,0.00000114,0.00001670,-0.000
 03026,-0.00001240,0.00003117,0.00000419,-0.00000276,-0.00004228,0.0000
 8400,-0.00003282,-0.00000121,0.00000479,0.,0.00001549,-0.00004249,0.00
 001428,-0.00020105,-0.00022980,0.00034735,0.00008265,-0.00002698,-0.00
 010678,-0.02403552,0.00420162,0.00623067,-0.06962568,0.00491055,0.0763
 2260,0.00003205,0.00000910,0.00000115,-0.00001365,-0.00000259,0.000000
 75,-0.00004348,-0.00004922,0.00005577,0.00002780,0.00001367,-0.0000543
 7,-0.00009115,-0.00002155,0.00002872,0.00011403,0.00001323,-0.00004103
 ,0.00006756,0.00002331,-0.00001614,-0.00001508,0.00000681,0.00002022,-
 0.00016146,0.00002090,-0.00004330,0.00009377,-0.00001687,0.00001833,0.
 00011487,-0.00002496,-0.00000703,0.00003658,0.00009852,0.00000934,-0.0
 0023359,-0.00038441,0.00091056,-0.00009759,0.00023108,-0.00043790,0.00
 001926,0.00007205,-0.00000793,-0.00001652,-0.00003023,-0.00003817,0.00
 152662,-0.00114320,-0.00122231,0.00452592,0.00384623,0.00100027,-0.000
 72198,0.00019749,0.00073701,-0.00373485,0.00927408,0.00520914,-0.00418
 784,-0.00445537,-0.00051253,-0.10575922,0.10729827,0.13380941,-0.00676
 841,0.00021571,0.00376223,0.00178168,0.00090631,0.00129199,-0.00275735
 ,0.00082093,-0.00159534,0.00016481,0.00036460,0.00006968,0.00001007,0.
 00000372,0.00000297,0.00000514,0.00000178,-0.00000578,-0.00004974,0.00
 000490,0.00000948,-0.00000480,0.00000173,-0.00000293,-0.00000679,-0.00
 000604,-0.00000125,-0.00000137,-0.00000688,-0.00000589,0.00000800,-0.0
 0000004,-0.00000263,0.00000112,-0.00000248,-0.00000832,-0.00001364,0.0
 0001481,0.00000394,-0.00000301,-0.00003279,0.00000709,-0.00000712,-0.0
 0000524,-0.00000104,0.00003402,-0.00002583,-0.00000728,-0.00008861,0.0
 0002665,0.00001828,0.00001797,-0.00005664,-0.00000682,-0.00001725,0.00
 008768,-0.00002691,-0.00002292,-0.00009344,0.00017650,0.00000615,0.000
 18290,0.00006003,-0.00020045,0.00082552,-0.00254730,-0.00076920,-0.001
 32095,0.00278976,0.11706041,-0.00000826,-0.00002064,-0.00000587,0.0000
 0752,0.00000267,-0.00000101,0.00005447,0.00008595,-0.00002498,-0.00002
 365,-0.00003745,0.00002942,-0.00000081,0.00002386,-0.00000449,0.000005
 69,-0.00006589,-0.00000375,-0.00005512,-0.00005228,0.00000501,0.000011
 76,0.00001302,-0.00001763,0.00015350,0.00004692,0.00009338,-0.00005734
 ,-0.00007112,-0.00006819,-0.00015771,-0.00004324,-0.00001905,0.0000374
 3,0.00009626,0.00000955,0.00032166,-0.00024408,0.00026930,-0.00028157,
 0.00017282,-0.00008323,-0.00001341,0.00002086,-0.00000698,0.00000797,-
 0.00000123,0.00000092,0.00059126,0.00004743,-0.00024839,0.00088791,-0.
 00264143,0.00345436,0.00050936,-0.00016713,-0.00054042,0.01872048,-0.0
 1868521,-0.02532608,-0.00415121,0.00510951,-0.00003807,0.11355040,-0.1
 7180850,-0.13056810,-0.01100226,0.01323045,0.00953488,-0.00450096,0.00
 237401,0.01090506,0.00229687,-0.00081301,-0.00525048,0.00158858,0.0005
 9252,-0.00442219,-0.00000604,-0.00000622,-0.00000532,-0.00000272,0.000
 00159,0.00000621,-0.00000336,0.00005111,-0.00000076,0.00000449,-0.0000
 0152,0.00000286,0.00000238,0.00001114,0.00000365,0.00000364,0.00000199
 ,0.00000139,-0.00000549,0.00000021,0.00000183,0.00000254,-0.00000759,0
 .00000263,0.00001435,-0.00000265,-0.00000325,-0.00001420,0.00000377,0.
 00000605,0.00000627,-0.00001445,-0.00000208,0.00000745,-0.00000850,-0.
 00000589,0.00004004,0.00004197,-0.00000909,-0.00004484,-0.00006865,-0.
 00003437,0.00007324,-0.00014343,0.00001089,-0.00033008,0.00035085,0.00
 017165,0.00012806,-0.00002732,-0.00007151,-0.00009526,-0.00107849,0.00
 114931,-0.00101503,-0.00272330,0.00356486,-0.11712248,0.17715633,-0.00
 000723,-0.00001523,-0.00000860,0.00000802,0.00000115,0.00000283,0.0000
 3679,0.00005680,-0.00000779,-0.00001836,-0.00002336,0.00000770,-0.0000
 0684,0.00001156,0.00000506,0.00001128,-0.00003713,-0.00001483,-0.00004
 209,-0.00003171,-0.00000605,0.00000662,0.00000777,-0.00000131,0.000141
 20,0.00005967,0.00013606,-0.00002842,-0.00007532,-0.00011518,-0.000149
 14,-0.00004226,-0.00004605,0.00004172,0.00005828,0.00010589,0.00019151
 ,0.00011049,-0.00026479,-0.00005818,-0.00017569,0.00014021,-0.00001162
 ,0.00004474,-0.00004893,-0.00004063,-0.00001580,-0.00000890,0.00024288
 ,-0.00028980,-0.00013593,0.00119797,0.00324486,0.00011074,-0.00051602,
 0.00012890,0.00054474,-0.00663878,0.00339837,0.01556673,-0.00083287,-0
 .00130021,-0.00328191,0.13837207,-0.12888548,-0.23286503,0.01051582,-0
 .01209035,-0.01695742,0.00291257,-0.00092441,-0.00399817,-0.00191905,-
 0.00204884,0.00183395,-0.00018067,-0.00023090,0.00081903,-0.00000311,-
 0.00000586,-0.00000305,0.00000094,0.00000119,0.00000016,-0.00001363,0.
 00003441,0.00000871,0.00000161,0.00000113,0.00000056,0.00000272,0.0000
 0650,0.00000274,0.00000304,0.00000274,0.00000324,-0.00000566,-0.000002
 96,0.00000036,0.00000696,-0.00000955,0.00000299,0.00001834,0.00000004,
 -0.00000390,-0.00002129,-0.00000993,0.00001216,0.00000950,-0.00001322,
 -0.00000603,-0.00000691,-0.00001136,-0.00001837,0.00001020,0.00003705,
 0.00002663,0.00000495,-0.00005319,0.00000986,-0.00003121,-0.00001771,-
 0.00000612,-0.00002486,0.00013305,-0.00005359,0.00001493,0.00003160,0.
 00004292,0.00115910,0.00092407,-0.00239950,-0.00105198,0.00058422,-0.0
 0168555,-0.14333971,0.13699812,0.24250005,0.00002362,-0.00001378,0.000
 00039,-0.00001081,-0.00000035,0.00000020,0.00003537,0.00007907,-0.0000
 0651,0.00000214,-0.00004406,0.00001377,-0.00007224,0.00002258,-0.00000
 642,0.00008742,-0.00008503,-0.00000408,-0.00001990,-0.00005287,0.00000
 407,0.00000200,0.00001679,-0.00001569,0.00004221,0.00005139,0.00003811
 ,-0.00001197,-0.00006473,-0.00001959,-0.00005991,-0.00004732,-0.000002
 64,0.00001401,0.00002585,0.00002185,0.00007250,0.00006934,-0.00010340,
 -0.00006578,-0.00006592,0.00004532,0.00000355,0.00002609,-0.00000805,-
 0.00000742,-0.00000891,-0.00000532,-0.00010093,-0.00003142,0.00003937,
 0.00006935,0.00000202,0.00002546,-0.00001426,-0.00000291,-0.00001085,0
 .00016899,-0.00010889,0.00025252,-0.00009467,-0.00000114,-0.00006748,0
 .00070071,-0.00037984,0.00005961,0.00315468,-0.00011551,0.00289099,0.0
 0734632,-0.01383974,-0.00241605,-0.00634809,0.00137394,-0.00175601,-0.
 03971787,0.09658258,0.02608560,0.00000073,-0.00000241,-0.00000305,-0.0
 0000927,0.00000339,0.00001313,-0.00001273,0.00005845,-0.00000745,0.000
 00515,-0.00000512,0.00000278,-0.00000680,0.00000997,0.00000275,0.00000
 158,-0.00000699,-0.00000651,-0.00000081,0.00000318,0.00000182,-0.00000
 140,-0.00000669,-0.00000182,-0.00000120,0.00000666,-0.00000019,-0.0000
 0566,-0.00000429,0.00000469,0.00000124,-0.00000553,-0.00000029,-0.0000
 0921,0.00000541,-0.00000045,0.00001373,0.00003957,-0.00001322,-0.00000
 686,-0.00000925,0.00000333,0.00000245,0.00000402,0.00000026,0.00001372
 ,-0.00000865,-0.00001079,0.00000261,0.00001418,0.00000266,-0.00017810,
 0.00077710,0.00056182,0.00038658,-0.00065308,-0.00038244,0.00009496,-0
 .00011279,0.00001810,0.03450235,-0.00002087,-0.00001897,-0.00000580,0.
 00001031,0.00000082,0.00000067,0.00005212,0.00007196,-0.00003332,-0.00
 002840,-0.00002967,0.00003444,0.00004811,0.00002994,-0.00001865,-0.000
 05929,-0.00004350,0.00001414,-0.00006069,-0.00004075,0.00000648,0.0000
 1249,0.00000437,-0.00001276,0.00014960,0.00001993,0.00007702,-0.000062
 53,-0.00003633,-0.00005982,-0.00013715,-0.00000455,-0.00002822,0.00001
 665,0.00002177,0.00001657,0.00015289,-0.00009493,0.00006097,-0.0001332
 0,0.00012411,-0.00003112,-0.00001806,-0.00001248,-0.00002031,-0.000007
 93,0.00000902,0.00000984,-0.00007673,0.00007564,0.00001902,0.00001673,
 -0.00000860,0.00000736,-0.00001644,-0.00003308,-0.00001634,-0.00025827
 ,-0.00029310,0.00056039,0.00009130,0.00007754,-0.00015638,0.00040259,-
 0.00042647,-0.00083929,-0.00143327,0.00124680,0.00566357,0.00492498,-0
 .03926794,0.00179839,0.00162754,0.00514387,-0.00786123,0.07797903,-0.4
 2957891,-0.06197564,-0.00001000,-0.00000608,-0.00000658,-0.00000276,0.
 00000199,0.00000766,0.00001794,0.00002287,-0.00000235,0.00000411,-0.00
 000207,0.00000272,0.00000497,0.00001223,0.00000347,0.00000254,0.000004
 14,0.00000397,-0.00000597,-0.00000085,0.00000135,0.00000227,-0.0000049
 2,0.00000503,0.00001661,-0.00000674,-0.00000327,-0.00001012,0.00001172
 ,0.00000220,0.00000853,-0.00000865,-0.00000381,0.00000262,-0.00000161,
 -0.00000547,0.00002990,0.00000323,0.00000515,-0.00000217,-0.00000050,0
 .00000687,-0.00000074,0.00001177,0.00000221,0.00001145,-0.00002461,-0.
 00002484,0.00001618,-0.00001886,0.00000222,-0.00015744,0.00045969,-0.0
 0046647,0.00034540,0.00035011,-0.00032274,0.00004156,-0.00052232,0.000
 12414,-0.08349399,0.46276775,0.00001995,0.00000467,-0.00000269,-0.0000
 0755,-0.00000187,-0.00000108,-0.00003409,-0.00004472,0.00005979,0.0000
 1688,0.00001672,-0.00005701,-0.00006313,-0.00001536,0.00003290,0.00008
 143,-0.00000169,-0.00003583,0.00004566,0.00002939,-0.00001619,-0.00001
 092,-0.00000234,0.00001479,-0.00008248,0.00001557,-0.00001249,0.000045
 22,-0.00001129,0.00000559,0.00006573,-0.00001274,0.00000111,-0.0000048
 2,-0.00000050,0.00001877,-0.00010759,0.00005430,0.00001252,0.00008693,
 -0.00008775,-0.00002939,0.00001271,0.00001403,0.00001192,0.00000562,-0
 .00000990,-0.00001239,0.00005302,-0.00007764,-0.00005529,0.00000629,-0
 .00001413,-0.00000041,0.00001331,0.00002421,0.00001506,0.00028101,0.00
 027088,-0.00026313,-0.00007939,-0.00006339,-0.00004146,-0.00004007,0.0
 0119680,0.00010135,0.00304164,0.00160480,-0.00407955,-0.00853427,0.050
 43855,0.00975797,-0.00177328,-0.00764093,0.00018068,0.03222727,-0.1095
 7440,-0.06274410,0.00000477,0.00000145,-0.00000027,0.00000385,0.000001
 64,-0.00000584,-0.00002898,0.00001322,0.00000760,-0.00000307,0.0000024
 9,-0.00000339,-0.00000353,-0.00000602,0.00000030,0.,-0.00000311,-0.000
 00194,0.00000359,0.00000129,-0.00000220,-0.00000049,0.00000102,-0.0000
 0450,-0.00001013,0.00000489,0.00000454,0.00000621,-0.00000873,0.000000
 90,-0.00000623,0.00000275,0.00000205,-0.00000038,0.00000093,0.00000238
 ,-0.00002198,0.00001369,-0.00000011,-0.00000112,-0.00000264,-0.0000020
 0,-0.00000108,-0.00000837,-0.00000238,-0.00000151,0.00001437,0.0000216
 9,-0.00001019,0.00002825,0.00000845,0.00011974,0.00022405,0.00023877,-
 0.00003222,-0.00038516,-0.00025508,-0.00003491,0.00053750,-0.00004127,
 -0.02524507,0.06346710,0.05716367,0.00000184,0.00000037,-0.00000616,0.
 00000410,-0.00000992,0.00002090,-0.00001652,-0.00000893,-0.00002843,0.
 00000273,0.00001107,-0.00001208,-0.00003679,-0.00001337,0.00001056,0.0
 0002602,0.00005263,-0.00001884,-0.00001090,-0.00001223,-0.00004800,-0.
 00006521,-0.00001398,0.00002594,-0.00047750,0.00001001,-0.00015921,0.0
 0012675,0.00007904,0.00010843,0.00034418,0.00034174,-0.00012889,-0.000
 77779,0.00056946,0.00041760,0.00089717,-0.00069672,0.00016097,-0.00006
 032,-0.00015550,-0.00046180,-0.01292627,-0.00345301,-0.00344039,-0.087
 24572,-0.00555565,-0.04262155,-0.00118776,-0.00165033,-0.00092862,-0.0
 0089947,0.00562602,0.00069622,-0.03745818,0.01774405,0.02201262,0.0009
 0533,-0.00078544,-0.00020220,-0.00005868,-0.00002689,-0.00007964,0.000
 06918,-0.00001420,-0.00001532,0.00001028,-0.00002092,-0.00002041,0.000
 00083,0.00010254,-0.00001974,0.00000122,-0.00005733,-0.00001019,-0.000
 01347,-0.00004798,0.00002572,0.00000764,0.00000111,0.00000144,0.000004
 62,0.00000174,-0.00000473,-0.00000530,-0.00004851,0.00000979,-0.000006
 40,0.00000252,-0.00000344,0.00000029,-0.00000251,-0.00000067,-0.000000
 60,-0.00000119,0.00000076,-0.00000390,-0.00004029,-0.00000840,0.000020
 93,-0.00004972,0.00004262,0.00009930,0.00004083,-0.00004066,-0.0010760
 6,-0.00195895,0.00012504,0.00183361,0.00107372,-0.00068265,0.00014884,
 -0.00007570,0.00000116,0.00006915,-0.00019956,0.00009265,-0.01193677,0
 .01216905,0.01284644,-0.00481702,0.00255099,0.00146000,0.00001816,-0.0
 0048655,-0.00028490,0.00040741,-0.00091288,-0.00029976,-0.00000456,0.0
 0001889,-0.00001526,-0.00000053,0.00000780,-0.00000461,0.00004429,-0.0
 0002270,0.00001939,0.00000793,0.00000761,-0.00000236,0.15403395,-0.000
 00582,0.00000452,-0.00000229,0.00000115,-0.00000263,0.00000526,-0.0000
 0945,-0.00003234,0.00000794,0.00000024,0.00001767,-0.00001872,0.000028
 69,-0.00000179,-0.00000470,-0.00003586,-0.00000158,-0.00000028,-0.0000
 0994,0.00004532,-0.00000900,-0.00001176,-0.00004147,0.00000829,0.00022
 276,0.00005103,0.00008531,-0.00005026,0.00000310,-0.00005164,-0.000133
 78,-0.00021738,0.00035823,-0.00115268,-0.00012816,-0.00035343,-0.00045
 332,-0.00067696,0.00297339,-0.00061030,-0.00115441,-0.00154568,-0.0055
 9221,0.00005800,-0.00681263,0.00297128,-0.01202594,0.00339028,0.003110
 16,-0.00028587,-0.00178442,0.01439718,-0.01820855,-0.01829411,0.008808
 77,-0.04962930,-0.03207945,-0.00361530,-0.00361840,0.00324911,0.000581
 50,0.00089209,-0.00047367,0.00122512,-0.00088599,-0.00131732,0.0000508
 7,0.00019874,-0.00044794,0.00001592,0.00018631,-0.00008923,-0.00002040
 ,-0.00015698,0.00007686,-0.00001636,-0.00013524,0.00010341,-0.00000432
 ,0.00000025,-0.00000028,0.00000010,0.00000094,-0.00000141,0.00000768,-
 0.00000811,0.00000455,-0.00000013,-0.00000007,-0.00000317,0.00000100,-
 0.00000262,-0.00000043,-0.00000172,0.00000051,0.00000300,-0.00001070,-
 0.00000755,-0.00000155,0.00001240,-0.00003317,0.00000862,0.00001527,-0
 .00001421,-0.00000560,-0.00087349,-0.00048567,0.00018081,0.00052499,0.
 00047334,-0.00089345,0.00014777,-0.00009437,0.00004664,-0.00001674,-0.
 00002819,-0.00001126,0.00056368,0.00148755,0.00006025,0.00414757,-0.00
 158367,-0.00275576,0.00020560,0.00140952,0.00021422,-0.00047007,-0.001
 19361,-0.00088587,0.00001034,-0.00004513,0.00008487,-0.00006247,0.0000
 1922,0.00002903,0.00019764,-0.00017955,0.00030945,-0.00000038,0.000015
 23,-0.00001188,-0.02409026,0.08601559,0.00002282,0.00001645,0.00001369
 ,-0.00001823,0.00000665,-0.00002348,-0.00005268,-0.00007704,0.00007894
 ,0.00002719,0.00001505,-0.00002833,-0.00002286,-0.00001046,0.00000971,
 0.00004077,0.00001074,0.00001416,0.00011889,0.00001879,0.00001424,0.00
 005635,0.00002768,-0.00004498,0.00006140,0.00016044,-0.00007104,0.0000
 4392,-0.00002168,0.00009222,0.00010274,-0.00067288,0.00013587,-0.00126
 133,0.00001757,-0.00037846,-0.00136873,-0.00070094,0.00142405,0.000220
 26,0.00072445,-0.00057947,0.00621858,-0.00385356,0.00458088,-0.0439524
 2,-0.00310646,-0.04117855,0.00169219,0.00129511,-0.00021313,0.00335606
 ,-0.00594694,-0.00256388,0.00603498,-0.02965887,-0.06500473,0.00011392
 ,0.00003740,-0.00065877,-0.00004903,-0.00128962,0.00094191,0.00013048,
 -0.00032465,-0.00009141,0.00007521,0.00006829,-0.00007779,0.00002409,-
 0.00009321,-0.00001932,-0.00002394,0.00003517,0.00004312,-0.00001563,0
 .00001520,-0.00000059,0.00000500,0.00000750,0.00000288,-0.00000129,-0.
 00000302,-0.00000054,-0.00000910,0.00000946,-0.00001287,0.00000206,-0.
 00000090,0.00000256,-0.00000709,-0.00000774,-0.00000205,-0.00000227,-0
 .00000496,-0.00000647,0.00000958,0.00001107,0.00000845,0.00004225,0.00
 000968,-0.00009731,-0.00010503,-0.00002261,0.00005983,0.00106356,0.002
 30314,-0.00136876,0.00055648,-0.00045774,0.00133965,0.00012742,-0.0001
 7279,-0.00004185,-0.00014338,-0.00001868,-0.00006703,-0.00107433,0.003
 95947,0.00225349,0.01726083,-0.01771812,-0.00966378,-0.00030610,0.0002
 0194,0.00074400,-0.00047390,-0.00134012,-0.00131610,-0.00000152,-0.000
 02873,0.00004020,0.00003222,-0.00006896,-0.00000140,-0.00002577,0.0000
 0237,0.00009496,0.00000478,-0.00000858,0.00000718,0.01147064,0.0566556
 4,0.11161008\\0.00000012,0.00000087,-0.00000427,0.00000454,-0.00000601
 ,0.00000036,-0.00000730,0.00000745,-0.00000069,0.00000611,-0.00000406,
 0.00000168,-0.00000623,0.00000257,-0.00000040,0.00000372,0.00000713,-0
 .00000644,-0.00000566,0.00000736,-0.00000305,0.00000412,-0.00000568,0.
 00001086,0.00000602,0.00000697,-0.00000008,-0.00000181,-0.00000369,-0.
 00000020,0.00000051,-0.00000524,0.00000289,-0.00002044,-0.00000913,0.0
 0000767,-0.00000408,0.00000666,0.00000240,-0.00000890,-0.00000257,0.00
 000048,0.00000311,0.00000798,-0.00000233,0.00000860,-0.00000367,0.0000
 0182,0.00001689,0.00000019,-0.00000978,0.00000584,0.00000240,-0.000009
 01,-0.00000812,0.00000036,0.00000211,0.00001623,0.00000711,-0.00000397
 ,-0.00000754,-0.00000079,0.00000563,-0.00000683,-0.00001074,0.00000313
 ,0.00000574,0.00000344,-0.00000078,-0.00001611,-0.00000273,-0.00001050
 ,0.00000524,0.00000141,0.00000004,0.00000403,0.00000033,-0.00000210,0.
 00000041,-0.00000004,-0.00000160,-0.00000125,-0.00000033,-0.00000149,0
 .00000035,-0.00000055,-0.00000094,-0.00000105,0.00000046,0.00000065,0.
 00000102,0.00000025,-0.00000096,-0.00000087,0.00000168,0.00000101,0.00
 000099,0.00000107,0.00000063,0.00000035,0.00000136,0.00000315,0.000004
 37,-0.00000236,0.00000198,-0.00000849,-0.00000572,0.00000431,0.0000007
 4,-0.00000155,0.00000289,0.00000226,0.00000321,0.00000520,-0.00000206,
 0.00000107,-0.00000304,0.00000034,-0.00000366,0.00000370,0.00000076,-0
 .00000008,0.00000659,0.00000584,-0.00000017,0.00000018,-0.00000201,0.0
 0000356,0.00000223,-0.00000068,0.,-0.00000121,-0.00000048,-0.00000193,
 -0.00000047,0.00000154,0.00000236,-0.00000276,0.00000049,-0.00000161,-
 0.00000323,-0.00000036,-0.00000492,-0.00000228\\\@


 FIREWORKS ENDED
 AND SPECTATORS GONE AWAY....
 AH, HOW VAST AND DARK
                     SHIKI
 Job cpu time:       0 days  2 hours 17 minutes  0.8 seconds.
 File lengths (MBytes):  RWF=   1212 Int=      0 D2E=      0 Chk=     16 Scr=      1
 Normal termination of Gaussian 09 at Tue Oct 25 10:49:11 2022.
