 Entering Gaussian System, Link 0=g09
 Input=au-1to3-ts-2-af52-c-term-level3-freq-se-p.com
 Output=au-1to3-ts-2-af52-c-term-level3-freq-se-p.log
 Initial command:
 /home/scr/programs/g09/l1.exe "/home/scr/guest1/Gau-1114.inp" -scrdir="/home/scr/guest1/"
 Entering Link 1 = /home/scr/programs/g09/l1.exe PID=      1115.
  
 Copyright (c) 1988,1990,1992,1993,1995,1998,2003,2009,2013,
            Gaussian, Inc.  All Rights Reserved.
  
 This is part of the Gaussian(R) 09 program.  It is based on
 the Gaussian(R) 03 system (copyright 2003, Gaussian, Inc.),
 the Gaussian(R) 98 system (copyright 1998, Gaussian, Inc.),
 the Gaussian(R) 94 system (copyright 1995, Gaussian, Inc.),
 the Gaussian 92(TM) system (copyright 1992, Gaussian, Inc.),
 the Gaussian 90(TM) system (copyright 1990, Gaussian, Inc.),
 the Gaussian 88(TM) system (copyright 1988, Gaussian, Inc.),
 the Gaussian 86(TM) system (copyright 1986, Carnegie Mellon
 University), and the Gaussian 82(TM) system (copyright 1983,
 Carnegie Mellon University). Gaussian is a federally registered
 trademark of Gaussian, Inc.
  
 This software contains proprietary and confidential information,
 including trade secrets, belonging to Gaussian, Inc.
  
 This software is provided under written license and may be
 used, copied, transmitted, or stored only in accord with that
 written license.
  
 The following legend is applicable only to US Government
 contracts under FAR:
  
                    RESTRICTED RIGHTS LEGEND
  
 Use, reproduction and disclosure by the US Government is
 subject to restrictions as set forth in subparagraphs (a)
 and (c) of the Commercial Computer Software - Restricted
 Rights clause in FAR 52.227-19.
  
 Gaussian, Inc.
 340 Quinnipiac St., Bldg. 40, Wallingford CT 06492
  
  
 ---------------------------------------------------------------
 Warning -- This program may not be used in any manner that
 competes with the business of Gaussian, Inc. or will provide
 assistance to any competitor of Gaussian, Inc.  The licensee
 of this program is prohibited from giving any competitor of
 Gaussian, Inc. access to this program.  By using this program,
 the user acknowledges that Gaussian, Inc. is engaged in the
 business of creating and licensing software in the field of
 computational chemistry and represents and warrants to the
 licensee that it is not a competitor of Gaussian, Inc. and that
 it will not use this program in any manner prohibited above.
 ---------------------------------------------------------------
  

 Cite this work as:
 Gaussian 09, Revision D.01,
 M. J. Frisch, G. W. Trucks, H. B. Schlegel, G. E. Scuseria, 
 M. A. Robb, J. R. Cheeseman, G. Scalmani, V. Barone, B. Mennucci, 
 G. A. Petersson, H. Nakatsuji, M. Caricato, X. Li, H. P. Hratchian, 
 A. F. Izmaylov, J. Bloino, G. Zheng, J. L. Sonnenberg, M. Hada, 
 M. Ehara, K. Toyota, R. Fukuda, J. Hasegawa, M. Ishida, T. Nakajima, 
 Y. Honda, O. Kitao, H. Nakai, T. Vreven, J. A. Montgomery, Jr., 
 J. E. Peralta, F. Ogliaro, M. Bearpark, J. J. Heyd, E. Brothers, 
 K. N. Kudin, V. N. Staroverov, T. Keith, R. Kobayashi, J. Normand, 
 K. Raghavachari, A. Rendell, J. C. Burant, S. S. Iyengar, J. Tomasi, 
 M. Cossi, N. Rega, J. M. Millam, M. Klene, J. E. Knox, J. B. Cross, 
 V. Bakken, C. Adamo, J. Jaramillo, R. Gomperts, R. E. Stratmann, 
 O. Yazyev, A. J. Austin, R. Cammi, C. Pomelli, J. W. Ochterski, 
 R. L. Martin, K. Morokuma, V. G. Zakrzewski, G. A. Voth, 
 P. Salvador, J. J. Dannenberg, S. Dapprich, A. D. Daniels, 
 O. Farkas, J. B. Foresman, J. V. Ortiz, J. Cioslowski, 
 and D. J. Fox, Gaussian, Inc., Wallingford CT, 2013.
 
 ******************************************
 Gaussian 09:  EM64L-G09RevD.01 24-Apr-2013
                19-May-2023 
 ******************************************
 %mem=30000MB
 %nprocshared=8
 Will use up to    8 processors via shared memory.
 ----------------------------------------
 # opt freq=noraman b3lyp/gen pseudo=read
 ----------------------------------------
 1/14=-1,18=20,19=15,26=3,38=1/1,3;
 2/9=110,12=2,17=6,18=5,40=1/2;
 3/5=7,11=2,16=1,17=8,25=1,30=1,71=1,74=-5/1,2,3;
 4//1;
 5/5=2,38=5/2;
 6/7=2,8=2,9=2,10=2,28=1/1;
 7//1,2,3,16;
 1/14=-1,18=20,19=15,26=3/3(2);
 2/9=110/2;
 99//99;
 2/9=110/2;
 3/5=7,6=1,11=2,16=1,17=8,25=1,30=1,71=1,74=-5,82=7/1,2,3;
 4/5=5,16=3,69=1/1;
 5/5=2,38=5/2;
 7//1,2,3,16;
 1/14=-1,18=20,19=15,26=3/3(-5);
 2/9=110/2;
 6/7=2,8=2,9=2,10=2,19=2,28=1/1;
 99/9=1/99;
 -------------------
 Title Card Required
 -------------------
 Symbolic Z-matrix:
 Charge =  0 Multiplicity = 1
 Au                    2.04061  -0.5132   -0.18179 
 P                     3.91785   0.86742   0.4812 
 C                     3.81122   1.37399   2.25138 
 H                     4.68817   1.98704   2.48322 
 H                     3.87563   0.45743   2.83566 
 C                     3.98161   2.42862  -0.52242 
 H                     2.94494   2.76772  -0.60613 
 H                     4.26717   2.13547  -1.54243 
 C                     4.8851    3.546     0.0098 
 H                     4.87621   4.3841   -0.68425 
 H                     4.53062   3.92373   0.9777 
 H                     5.92031   3.22508   0.14696 
 C                     2.50325   2.11749   2.58235 
 H                     1.63106   1.48391   2.40316 
 H                     2.49702   2.39029   3.64553 
 H                     2.39063   3.0361    2.01111 
 N                    -5.65079   2.53651   2.57595 
 C                    -4.54514   2.4591    1.61756 
 C                    -4.92674   1.59464   0.40583 
 O                    -5.5276    0.53928   0.5692 
 C                    -3.33863   1.83516   2.37112 
 O                    -2.13552   1.77864   1.61172 
 N                    -4.63108   2.0118   -0.87758 
 C                    -3.90813   3.20044  -1.30974 
 C                    -2.43005   3.22744  -0.89609 
 O                    -2.03513   4.07333  -0.07397 
 N                    -1.57232   2.31434  -1.40897 
 C                    -1.80933   1.19581  -2.31533 
 C                    -2.50469  -0.05794  -1.74387 
 O                    -3.15754  -0.75792  -2.5222 
 C                    -0.44774   0.75915  -2.97691 
 S                     1.24849   0.98365  -2.09678 
 N                    -2.25385  -0.37366  -0.459 
 C                    -2.30769  -1.75982  -0.01465 
 C                    -0.89337  -2.31549   0.28936 
 C                    -3.16586  -1.86945   1.25784 
 O                    -2.71649  -1.53686   2.34822 
 N                    -4.42847  -2.37498   1.12971 
 C                    -5.19614  -2.48006  -0.10011 
 C                    -6.6664   -2.35377   0.24066 
 O                    -7.1153   -2.3249    1.36449 
 O                    -7.42123  -2.31932  -0.86911 
 H                    -3.20225   2.43329   3.2933 
 H                    -3.56664   0.80603   2.65779 
 H                    -1.89101   2.6884    1.36098 
 H                    -4.27474   3.47801   1.32183 
 H                    -6.0342    1.59614   2.68017 
 H                    -6.40481   3.10266   2.17966 
 H                    -4.359     4.1115   -0.89582 
 H                    -4.00469   3.25015  -2.39544 
 H                    -4.89818   1.33682  -1.58227 
 H                    -0.2645    1.46099  -3.814 
 H                    -0.54579  -0.27237  -3.37251 
 H                    -2.44725   1.51843  -3.16262 
 H                    -0.61677   2.38988  -1.06851 
 H                    -0.96555  -3.4031    0.51284 
 H                    -0.48866  -1.84348   1.18681 
 H                    -2.75102  -2.32173  -0.83205 
 H                    -1.89316   0.3326    0.18679 
 H                    -5.04837  -3.45076  -0.59954 
 H                    -4.93426  -1.70234  -0.82485 
 H                    -4.98893  -2.32016   1.96732 
 H                    -8.34544  -2.25603  -0.5622 
 Se                    0.32909  -2.00434  -1.22613 
 C                     5.53789   0.0275    0.29519 
 C                     5.76209  -1.14223   1.04666 
 C                     6.53398   0.47876  -0.57267 
 C                     6.98288  -1.81609   0.94522 
 H                     4.98174  -1.53135   1.694 
 C                     7.75165  -0.20504  -0.67262 
 H                     6.37654   1.36578  -1.18998 
 C                     7.97572  -1.34401   0.08936 
 H                     7.14644  -2.71874   1.5299 
 H                     8.51286   0.16509  -1.3581 
 H                     8.91621  -1.88236   0.0001 
 Cl                    2.27836  -1.77183   1.94888 
 

 GradGradGradGradGradGradGradGradGradGradGradGradGradGradGradGradGradGrad
 Berny optimization.
 Initialization pass.
                           ----------------------------
                           !    Initial Parameters    !
                           ! (Angstroms and Degrees)  !
 --------------------------                            --------------------------
 ! Name  Definition              Value          Derivative Info.                !
 --------------------------------------------------------------------------------
 ! R1    R(1,2)                  2.4227         estimate D2E/DX2                !
 ! R2    R(1,32)                 2.5564         estimate D2E/DX2                !
 ! R3    R(1,64)                 2.4987         estimate D2E/DX2                !
 ! R4    R(1,76)                 2.486          estimate D2E/DX2                !
 ! R5    R(2,3)                  1.8443         estimate D2E/DX2                !
 ! R6    R(2,6)                  1.8571         estimate D2E/DX2                !
 ! R7    R(2,65)                 1.8343         estimate D2E/DX2                !
 ! R8    R(3,4)                  1.0948         estimate D2E/DX2                !
 ! R9    R(3,5)                  1.0889         estimate D2E/DX2                !
 ! R10   R(3,13)                 1.5405         estimate D2E/DX2                !
 ! R11   R(6,7)                  1.0939         estimate D2E/DX2                !
 ! R12   R(6,8)                  1.099          estimate D2E/DX2                !
 ! R13   R(6,9)                  1.5323         estimate D2E/DX2                !
 ! R14   R(9,10)                 1.0882         estimate D2E/DX2                !
 ! R15   R(9,11)                 1.0978         estimate D2E/DX2                !
 ! R16   R(9,12)                 1.0925         estimate D2E/DX2                !
 ! R17   R(13,14)                1.0928         estimate D2E/DX2                !
 ! R18   R(13,15)                1.0976         estimate D2E/DX2                !
 ! R19   R(13,16)                1.0876         estimate D2E/DX2                !
 ! R20   R(17,18)                1.4652         estimate D2E/DX2                !
 ! R21   R(17,47)                1.0209         estimate D2E/DX2                !
 ! R22   R(17,48)                1.0228         estimate D2E/DX2                !
 ! R23   R(18,19)                1.5366         estimate D2E/DX2                !
 ! R24   R(18,21)                1.5533         estimate D2E/DX2                !
 ! R25   R(18,46)                1.0949         estimate D2E/DX2                !
 ! R26   R(19,20)                1.2254         estimate D2E/DX2                !
 ! R27   R(19,23)                1.3815         estimate D2E/DX2                !
 ! R28   R(21,22)                1.4239         estimate D2E/DX2                !
 ! R29   R(21,43)                1.1076         estimate D2E/DX2                !
 ! R30   R(21,44)                1.0924         estimate D2E/DX2                !
 ! R31   R(22,45)                0.9748         estimate D2E/DX2                !
 ! R32   R(23,24)                1.4568         estimate D2E/DX2                !
 ! R33   R(23,51)                1.0117         estimate D2E/DX2                !
 ! R34   R(24,25)                1.5351         estimate D2E/DX2                !
 ! R35   R(24,49)                1.0976         estimate D2E/DX2                !
 ! R36   R(24,50)                1.0911         estimate D2E/DX2                !
 ! R37   R(25,26)                1.2439         estimate D2E/DX2                !
 ! R38   R(25,27)                1.3537         estimate D2E/DX2                !
 ! R39   R(27,28)                1.459          estimate D2E/DX2                !
 ! R40   R(27,55)                1.0172         estimate D2E/DX2                !
 ! R41   R(28,29)                1.5434         estimate D2E/DX2                !
 ! R42   R(28,31)                1.5755         estimate D2E/DX2                !
 ! R43   R(28,54)                1.1086         estimate D2E/DX2                !
 ! R44   R(29,30)                1.2337         estimate D2E/DX2                !
 ! R45   R(29,33)                1.3467         estimate D2E/DX2                !
 ! R46   R(31,32)                1.9241         estimate D2E/DX2                !
 ! R47   R(31,52)                1.1076         estimate D2E/DX2                !
 ! R48   R(31,53)                1.1091         estimate D2E/DX2                !
 ! R49   R(33,34)                1.4566         estimate D2E/DX2                !
 ! R50   R(33,59)                1.0227         estimate D2E/DX2                !
 ! R51   R(34,35)                1.5497         estimate D2E/DX2                !
 ! R52   R(34,36)                1.5387         estimate D2E/DX2                !
 ! R53   R(34,58)                1.0865         estimate D2E/DX2                !
 ! R54   R(35,56)                1.1127         estimate D2E/DX2                !
 ! R55   R(35,57)                1.0918         estimate D2E/DX2                !
 ! R56   R(35,64)                1.9718         estimate D2E/DX2                !
 ! R57   R(36,37)                1.2254         estimate D2E/DX2                !
 ! R58   R(36,38)                1.3661         estimate D2E/DX2                !
 ! R59   R(38,39)                1.4536         estimate D2E/DX2                !
 ! R60   R(38,62)                1.0093         estimate D2E/DX2                !
 ! R61   R(39,40)                1.5145         estimate D2E/DX2                !
 ! R62   R(39,60)                1.1016         estimate D2E/DX2                !
 ! R63   R(39,61)                1.0948         estimate D2E/DX2                !
 ! R64   R(40,41)                1.2105         estimate D2E/DX2                !
 ! R65   R(40,42)                1.3426         estimate D2E/DX2                !
 ! R66   R(42,63)                0.9759         estimate D2E/DX2                !
 ! R67   R(65,66)                1.4083         estimate D2E/DX2                !
 ! R68   R(65,67)                1.3961         estimate D2E/DX2                !
 ! R69   R(66,68)                1.3981         estimate D2E/DX2                !
 ! R70   R(66,69)                1.086          estimate D2E/DX2                !
 ! R71   R(67,70)                1.4001         estimate D2E/DX2                !
 ! R72   R(67,71)                1.0921         estimate D2E/DX2                !
 ! R73   R(68,72)                1.3932         estimate D2E/DX2                !
 ! R74   R(68,73)                1.0878         estimate D2E/DX2                !
 ! R75   R(70,72)                1.3886         estimate D2E/DX2                !
 ! R76   R(70,74)                1.0892         estimate D2E/DX2                !
 ! R77   R(72,75)                1.0873         estimate D2E/DX2                !
 ! A1    A(2,1,32)              96.3969         estimate D2E/DX2                !
 ! A2    A(2,1,76)              88.8465         estimate D2E/DX2                !
 ! A3    A(32,1,64)             79.8685         estimate D2E/DX2                !
 ! A4    A(64,1,76)             96.9836         estimate D2E/DX2                !
 ! A5    A(1,2,3)              111.9855         estimate D2E/DX2                !
 ! A6    A(1,2,6)              110.964          estimate D2E/DX2                !
 ! A7    A(1,2,65)             113.3066         estimate D2E/DX2                !
 ! A8    A(3,2,6)              106.8454         estimate D2E/DX2                !
 ! A9    A(3,2,65)             105.9122         estimate D2E/DX2                !
 ! A10   A(6,2,65)             107.4469         estimate D2E/DX2                !
 ! A11   A(2,3,4)              108.1037         estimate D2E/DX2                !
 ! A12   A(2,3,5)              106.2842         estimate D2E/DX2                !
 ! A13   A(2,3,13)             112.8217         estimate D2E/DX2                !
 ! A14   A(4,3,5)              108.0795         estimate D2E/DX2                !
 ! A15   A(4,3,13)             111.3677         estimate D2E/DX2                !
 ! A16   A(5,3,13)             109.9501         estimate D2E/DX2                !
 ! A17   A(2,6,7)              105.6299         estimate D2E/DX2                !
 ! A18   A(2,6,8)              106.6342         estimate D2E/DX2                !
 ! A19   A(2,6,9)              116.4592         estimate D2E/DX2                !
 ! A20   A(7,6,8)              104.9447         estimate D2E/DX2                !
 ! A21   A(7,6,9)              111.0563         estimate D2E/DX2                !
 ! A22   A(8,6,9)              111.3241         estimate D2E/DX2                !
 ! A23   A(6,9,10)             109.5887         estimate D2E/DX2                !
 ! A24   A(6,9,11)             111.5143         estimate D2E/DX2                !
 ! A25   A(6,9,12)             112.8374         estimate D2E/DX2                !
 ! A26   A(10,9,11)            107.1385         estimate D2E/DX2                !
 ! A27   A(10,9,12)            108.3044         estimate D2E/DX2                !
 ! A28   A(11,9,12)            107.2393         estimate D2E/DX2                !
 ! A29   A(3,13,14)            111.26           estimate D2E/DX2                !
 ! A30   A(3,13,15)            109.4431         estimate D2E/DX2                !
 ! A31   A(3,13,16)            112.5024         estimate D2E/DX2                !
 ! A32   A(14,13,15)           107.3611         estimate D2E/DX2                !
 ! A33   A(14,13,16)           108.7186         estimate D2E/DX2                !
 ! A34   A(15,13,16)           107.3518         estimate D2E/DX2                !
 ! A35   A(18,17,47)           107.5486         estimate D2E/DX2                !
 ! A36   A(18,17,48)           109.3968         estimate D2E/DX2                !
 ! A37   A(47,17,48)           105.8176         estimate D2E/DX2                !
 ! A38   A(17,18,19)           110.9844         estimate D2E/DX2                !
 ! A39   A(17,18,21)           106.8591         estimate D2E/DX2                !
 ! A40   A(17,18,46)           108.2921         estimate D2E/DX2                !
 ! A41   A(19,18,21)           110.4551         estimate D2E/DX2                !
 ! A42   A(19,18,46)           111.8315         estimate D2E/DX2                !
 ! A43   A(21,18,46)           108.2407         estimate D2E/DX2                !
 ! A44   A(18,19,20)           120.0765         estimate D2E/DX2                !
 ! A45   A(18,19,23)           120.6337         estimate D2E/DX2                !
 ! A46   A(20,19,23)           119.2666         estimate D2E/DX2                !
 ! A47   A(18,21,22)           114.426          estimate D2E/DX2                !
 ! A48   A(18,21,43)           106.4174         estimate D2E/DX2                !
 ! A49   A(18,21,44)           110.0966         estimate D2E/DX2                !
 ! A50   A(22,21,43)           111.1899         estimate D2E/DX2                !
 ! A51   A(22,21,44)           106.197          estimate D2E/DX2                !
 ! A52   A(43,21,44)           108.4188         estimate D2E/DX2                !
 ! A53   A(21,22,45)           108.1839         estimate D2E/DX2                !
 ! A54   A(19,23,24)           128.915          estimate D2E/DX2                !
 ! A55   A(19,23,51)           112.8992         estimate D2E/DX2                !
 ! A56   A(24,23,51)           117.9536         estimate D2E/DX2                !
 ! A57   A(23,24,25)           114.3453         estimate D2E/DX2                !
 ! A58   A(23,24,49)           111.1952         estimate D2E/DX2                !
 ! A59   A(23,24,50)           106.7642         estimate D2E/DX2                !
 ! A60   A(25,24,49)           106.219          estimate D2E/DX2                !
 ! A61   A(25,24,50)           110.642          estimate D2E/DX2                !
 ! A62   A(49,24,50)           107.5227         estimate D2E/DX2                !
 ! A63   A(24,25,26)           119.7178         estimate D2E/DX2                !
 ! A64   A(24,25,27)           119.7444         estimate D2E/DX2                !
 ! A65   A(26,25,27)           120.5253         estimate D2E/DX2                !
 ! A66   A(25,27,28)           130.5067         estimate D2E/DX2                !
 ! A67   A(25,27,55)           114.7284         estimate D2E/DX2                !
 ! A68   A(28,27,55)           114.6735         estimate D2E/DX2                !
 ! A69   A(27,28,29)           117.7712         estimate D2E/DX2                !
 ! A70   A(27,28,31)           109.4469         estimate D2E/DX2                !
 ! A71   A(27,28,54)           110.1915         estimate D2E/DX2                !
 ! A72   A(29,28,31)           108.6454         estimate D2E/DX2                !
 ! A73   A(29,28,54)           105.0791         estimate D2E/DX2                !
 ! A74   A(31,28,54)           104.8934         estimate D2E/DX2                !
 ! A75   A(28,29,30)           117.7578         estimate D2E/DX2                !
 ! A76   A(28,29,33)           117.3748         estimate D2E/DX2                !
 ! A77   A(30,29,33)           124.5762         estimate D2E/DX2                !
 ! A78   A(28,31,32)           122.5101         estimate D2E/DX2                !
 ! A79   A(28,31,52)           106.5405         estimate D2E/DX2                !
 ! A80   A(28,31,53)           109.3373         estimate D2E/DX2                !
 ! A81   A(32,31,52)            97.2344         estimate D2E/DX2                !
 ! A82   A(32,31,53)           110.4626         estimate D2E/DX2                !
 ! A83   A(52,31,53)           109.5344         estimate D2E/DX2                !
 ! A84   A(1,32,31)            123.1953         estimate D2E/DX2                !
 ! A85   A(29,33,34)           120.482          estimate D2E/DX2                !
 ! A86   A(29,33,59)           120.415          estimate D2E/DX2                !
 ! A87   A(34,33,59)           118.5278         estimate D2E/DX2                !
 ! A88   A(33,34,35)           111.551          estimate D2E/DX2                !
 ! A89   A(33,34,36)           109.9184         estimate D2E/DX2                !
 ! A90   A(33,34,58)           106.1255         estimate D2E/DX2                !
 ! A91   A(35,34,36)           108.7369         estimate D2E/DX2                !
 ! A92   A(35,34,58)           109.5451         estimate D2E/DX2                !
 ! A93   A(36,34,58)           110.962          estimate D2E/DX2                !
 ! A94   A(34,35,56)           109.3102         estimate D2E/DX2                !
 ! A95   A(34,35,57)           110.1535         estimate D2E/DX2                !
 ! A96   A(34,35,64)           111.0058         estimate D2E/DX2                !
 ! A97   A(56,35,57)           106.3527         estimate D2E/DX2                !
 ! A98   A(56,35,64)           110.4164         estimate D2E/DX2                !
 ! A99   A(57,35,64)           109.4961         estimate D2E/DX2                !
 ! A100  A(34,36,37)           120.7978         estimate D2E/DX2                !
 ! A101  A(34,36,38)           117.6632         estimate D2E/DX2                !
 ! A102  A(37,36,38)           121.5245         estimate D2E/DX2                !
 ! A103  A(36,38,39)           126.4588         estimate D2E/DX2                !
 ! A104  A(36,38,62)           114.538          estimate D2E/DX2                !
 ! A105  A(39,38,62)           114.381          estimate D2E/DX2                !
 ! A106  A(38,39,40)           108.4396         estimate D2E/DX2                !
 ! A107  A(38,39,60)           112.1136         estimate D2E/DX2                !
 ! A108  A(38,39,61)           112.481          estimate D2E/DX2                !
 ! A109  A(40,39,60)           107.8009         estimate D2E/DX2                !
 ! A110  A(40,39,61)           108.7787         estimate D2E/DX2                !
 ! A111  A(60,39,61)           107.0828         estimate D2E/DX2                !
 ! A112  A(39,40,41)           124.8114         estimate D2E/DX2                !
 ! A113  A(39,40,42)           111.2198         estimate D2E/DX2                !
 ! A114  A(41,40,42)           123.9384         estimate D2E/DX2                !
 ! A115  A(40,42,63)           105.9115         estimate D2E/DX2                !
 ! A116  A(1,64,35)            101.3966         estimate D2E/DX2                !
 ! A117  A(2,65,66)            117.8293         estimate D2E/DX2                !
 ! A118  A(2,65,67)            123.0379         estimate D2E/DX2                !
 ! A119  A(66,65,67)           119.1173         estimate D2E/DX2                !
 ! A120  A(65,66,68)           120.0425         estimate D2E/DX2                !
 ! A121  A(65,66,69)           120.0849         estimate D2E/DX2                !
 ! A122  A(68,66,69)           119.8656         estimate D2E/DX2                !
 ! A123  A(65,67,70)           120.4673         estimate D2E/DX2                !
 ! A124  A(65,67,71)           120.7344         estimate D2E/DX2                !
 ! A125  A(70,67,71)           118.7972         estimate D2E/DX2                !
 ! A126  A(66,68,72)           120.2316         estimate D2E/DX2                !
 ! A127  A(66,68,73)           119.4874         estimate D2E/DX2                !
 ! A128  A(72,68,73)           120.2763         estimate D2E/DX2                !
 ! A129  A(67,70,72)           120.1177         estimate D2E/DX2                !
 ! A130  A(67,70,74)           119.1293         estimate D2E/DX2                !
 ! A131  A(72,70,74)           120.7519         estimate D2E/DX2                !
 ! A132  A(68,72,70)           120.0023         estimate D2E/DX2                !
 ! A133  A(68,72,75)           119.937          estimate D2E/DX2                !
 ! A134  A(70,72,75)           120.0429         estimate D2E/DX2                !
 ! A135  L(2,1,64,76,-1)       185.8302         estimate D2E/DX2                !
 ! A136  L(32,1,76,64,-1)      176.8522         estimate D2E/DX2                !
 ! A137  L(2,1,64,76,-2)       187.9925         estimate D2E/DX2                !
 ! A138  L(32,1,76,64,-2)      194.3306         estimate D2E/DX2                !
 ! D1    D(32,1,2,3)           122.7517         estimate D2E/DX2                !
 ! D2    D(32,1,2,6)             3.4534         estimate D2E/DX2                !
 ! D3    D(32,1,2,65)         -117.5215         estimate D2E/DX2                !
 ! D4    D(76,1,2,3)           -43.6804         estimate D2E/DX2                !
 ! D5    D(76,1,2,6)          -162.9787         estimate D2E/DX2                !
 ! D6    D(76,1,2,65)           76.0464         estimate D2E/DX2                !
 ! D7    D(3,2,64,35)           -0.3582         estimate D2E/DX2                !
 ! D8    D(6,2,64,35)         -121.7791         estimate D2E/DX2                !
 ! D9    D(65,2,64,35)         120.4869         estimate D2E/DX2                !
 ! D10   D(2,1,32,31)         -168.1021         estimate D2E/DX2                !
 ! D11   D(64,1,32,31)          21.1361         estimate D2E/DX2                !
 ! D12   D(32,1,64,35)        -121.9603         estimate D2E/DX2                !
 ! D13   D(76,1,64,35)          43.7091         estimate D2E/DX2                !
 ! D14   D(1,2,3,4)            179.6974         estimate D2E/DX2                !
 ! D15   D(1,2,3,5)             63.871          estimate D2E/DX2                !
 ! D16   D(1,2,3,13)           -56.6982         estimate D2E/DX2                !
 ! D17   D(6,2,3,4)            -58.6087         estimate D2E/DX2                !
 ! D18   D(6,2,3,5)           -174.4351         estimate D2E/DX2                !
 ! D19   D(6,2,3,13)            64.9957         estimate D2E/DX2                !
 ! D20   D(65,2,3,4)            55.726          estimate D2E/DX2                !
 ! D21   D(65,2,3,5)           -60.1004         estimate D2E/DX2                !
 ! D22   D(65,2,3,13)          179.3304         estimate D2E/DX2                !
 ! D23   D(1,2,6,7)             41.3604         estimate D2E/DX2                !
 ! D24   D(1,2,6,8)            -69.9284         estimate D2E/DX2                !
 ! D25   D(1,2,6,9)            165.1381         estimate D2E/DX2                !
 ! D26   D(3,2,6,7)            -80.9762         estimate D2E/DX2                !
 ! D27   D(3,2,6,8)            167.735          estimate D2E/DX2                !
 ! D28   D(3,2,6,9)             42.8015         estimate D2E/DX2                !
 ! D29   D(65,2,6,7)           165.7311         estimate D2E/DX2                !
 ! D30   D(65,2,6,8)            54.4423         estimate D2E/DX2                !
 ! D31   D(65,2,6,9)           -70.4912         estimate D2E/DX2                !
 ! D32   D(1,2,65,66)          -61.4104         estimate D2E/DX2                !
 ! D33   D(1,2,65,67)          117.1412         estimate D2E/DX2                !
 ! D34   D(3,2,65,66)           61.73           estimate D2E/DX2                !
 ! D35   D(3,2,65,67)         -119.7184         estimate D2E/DX2                !
 ! D36   D(6,2,65,66)          175.6503         estimate D2E/DX2                !
 ! D37   D(6,2,65,67)           -5.7981         estimate D2E/DX2                !
 ! D38   D(2,3,13,14)           61.4056         estimate D2E/DX2                !
 ! D39   D(2,3,13,15)          179.8882         estimate D2E/DX2                !
 ! D40   D(2,3,13,16)          -60.8648         estimate D2E/DX2                !
 ! D41   D(4,3,13,14)         -176.8149         estimate D2E/DX2                !
 ! D42   D(4,3,13,15)          -58.3323         estimate D2E/DX2                !
 ! D43   D(4,3,13,16)           60.9147         estimate D2E/DX2                !
 ! D44   D(5,3,13,14)          -57.044          estimate D2E/DX2                !
 ! D45   D(5,3,13,15)           61.4386         estimate D2E/DX2                !
 ! D46   D(5,3,13,16)         -179.3144         estimate D2E/DX2                !
 ! D47   D(2,6,9,10)           177.2841         estimate D2E/DX2                !
 ! D48   D(2,6,9,11)           -64.2595         estimate D2E/DX2                !
 ! D49   D(2,6,9,12)            56.5151         estimate D2E/DX2                !
 ! D50   D(7,6,9,10)           -61.7794         estimate D2E/DX2                !
 ! D51   D(7,6,9,11)            56.677          estimate D2E/DX2                !
 ! D52   D(7,6,9,12)           177.4516         estimate D2E/DX2                !
 ! D53   D(8,6,9,10)            54.7679         estimate D2E/DX2                !
 ! D54   D(8,6,9,11)           173.2243         estimate D2E/DX2                !
 ! D55   D(8,6,9,12)           -66.0011         estimate D2E/DX2                !
 ! D56   D(47,17,18,19)         44.1321         estimate D2E/DX2                !
 ! D57   D(47,17,18,21)        -76.3548         estimate D2E/DX2                !
 ! D58   D(47,17,18,46)        167.2442         estimate D2E/DX2                !
 ! D59   D(48,17,18,19)        -70.351          estimate D2E/DX2                !
 ! D60   D(48,17,18,21)        169.1621         estimate D2E/DX2                !
 ! D61   D(48,17,18,46)         52.7611         estimate D2E/DX2                !
 ! D62   D(17,18,19,20)        -42.9708         estimate D2E/DX2                !
 ! D63   D(17,18,19,23)        135.2645         estimate D2E/DX2                !
 ! D64   D(21,18,19,20)         75.3616         estimate D2E/DX2                !
 ! D65   D(21,18,19,23)       -106.4031         estimate D2E/DX2                !
 ! D66   D(46,18,19,20)       -164.0205         estimate D2E/DX2                !
 ! D67   D(46,18,19,23)         14.2147         estimate D2E/DX2                !
 ! D68   D(17,18,21,22)       -175.4461         estimate D2E/DX2                !
 ! D69   D(17,18,21,43)        -52.2377         estimate D2E/DX2                !
 ! D70   D(17,18,21,44)         65.0559         estimate D2E/DX2                !
 ! D71   D(19,18,21,22)         63.7292         estimate D2E/DX2                !
 ! D72   D(19,18,21,43)       -173.0624         estimate D2E/DX2                !
 ! D73   D(19,18,21,44)        -55.7688         estimate D2E/DX2                !
 ! D74   D(46,18,21,22)        -59.011          estimate D2E/DX2                !
 ! D75   D(46,18,21,43)         64.1974         estimate D2E/DX2                !
 ! D76   D(46,18,21,44)       -178.509          estimate D2E/DX2                !
 ! D77   D(18,19,23,24)          3.2641         estimate D2E/DX2                !
 ! D78   D(18,19,23,51)        177.5385         estimate D2E/DX2                !
 ! D79   D(20,19,23,24)       -178.4865         estimate D2E/DX2                !
 ! D80   D(20,19,23,51)         -4.2121         estimate D2E/DX2                !
 ! D81   D(18,21,22,45)         59.8964         estimate D2E/DX2                !
 ! D82   D(43,21,22,45)        -60.7005         estimate D2E/DX2                !
 ! D83   D(44,21,22,45)       -178.4421         estimate D2E/DX2                !
 ! D84   D(19,23,24,25)         65.1502         estimate D2E/DX2                !
 ! D85   D(19,23,24,49)        -55.1328         estimate D2E/DX2                !
 ! D86   D(19,23,24,50)       -172.1382         estimate D2E/DX2                !
 ! D87   D(51,23,24,25)       -108.8779         estimate D2E/DX2                !
 ! D88   D(51,23,24,49)        130.8391         estimate D2E/DX2                !
 ! D89   D(51,23,24,50)         13.8337         estimate D2E/DX2                !
 ! D90   D(23,24,25,26)       -113.2211         estimate D2E/DX2                !
 ! D91   D(23,24,25,27)         65.4996         estimate D2E/DX2                !
 ! D92   D(49,24,25,26)          9.7967         estimate D2E/DX2                !
 ! D93   D(49,24,25,27)       -171.4826         estimate D2E/DX2                !
 ! D94   D(50,24,25,26)        126.198          estimate D2E/DX2                !
 ! D95   D(50,24,25,27)        -55.0814         estimate D2E/DX2                !
 ! D96   D(24,25,27,28)         -2.4856         estimate D2E/DX2                !
 ! D97   D(24,25,27,55)       -178.775          estimate D2E/DX2                !
 ! D98   D(26,25,27,28)        176.2245         estimate D2E/DX2                !
 ! D99   D(26,25,27,55)         -0.0648         estimate D2E/DX2                !
 ! D100  D(25,27,28,29)        -74.4398         estimate D2E/DX2                !
 ! D101  D(25,27,28,31)        160.8714         estimate D2E/DX2                !
 ! D102  D(25,27,28,54)         46.02           estimate D2E/DX2                !
 ! D103  D(55,27,28,29)        101.8512         estimate D2E/DX2                !
 ! D104  D(55,27,28,31)        -22.8376         estimate D2E/DX2                !
 ! D105  D(55,27,28,54)       -137.689          estimate D2E/DX2                !
 ! D106  D(27,28,29,30)        152.7107         estimate D2E/DX2                !
 ! D107  D(27,28,29,33)        -33.2001         estimate D2E/DX2                !
 ! D108  D(31,28,29,30)        -82.2036         estimate D2E/DX2                !
 ! D109  D(31,28,29,33)         91.8856         estimate D2E/DX2                !
 ! D110  D(54,28,29,30)         29.6256         estimate D2E/DX2                !
 ! D111  D(54,28,29,33)       -156.2852         estimate D2E/DX2                !
 ! D112  D(27,28,31,32)         28.9631         estimate D2E/DX2                !
 ! D113  D(27,28,31,52)        -81.2216         estimate D2E/DX2                !
 ! D114  D(27,28,31,53)        160.4919         estimate D2E/DX2                !
 ! D115  D(29,28,31,32)       -100.8762         estimate D2E/DX2                !
 ! D116  D(29,28,31,52)        148.9391         estimate D2E/DX2                !
 ! D117  D(29,28,31,53)         30.6526         estimate D2E/DX2                !
 ! D118  D(54,28,31,32)        147.1708         estimate D2E/DX2                !
 ! D119  D(54,28,31,52)         36.9861         estimate D2E/DX2                !
 ! D120  D(54,28,31,53)        -81.3004         estimate D2E/DX2                !
 ! D121  D(28,29,33,34)       -151.011          estimate D2E/DX2                !
 ! D122  D(28,29,33,59)         20.1653         estimate D2E/DX2                !
 ! D123  D(30,29,33,34)         22.6345         estimate D2E/DX2                !
 ! D124  D(30,29,33,59)       -166.1891         estimate D2E/DX2                !
 ! D125  D(28,31,32,1)          75.3276         estimate D2E/DX2                !
 ! D126  D(52,31,32,1)        -169.7617         estimate D2E/DX2                !
 ! D127  D(53,31,32,1)         -55.7375         estimate D2E/DX2                !
 ! D128  D(29,33,34,35)        108.543          estimate D2E/DX2                !
 ! D129  D(29,33,34,36)       -130.7631         estimate D2E/DX2                !
 ! D130  D(29,33,34,58)        -10.7062         estimate D2E/DX2                !
 ! D131  D(59,33,34,35)        -62.7973         estimate D2E/DX2                !
 ! D132  D(59,33,34,36)         57.8966         estimate D2E/DX2                !
 ! D133  D(59,33,34,58)        177.9534         estimate D2E/DX2                !
 ! D134  D(33,34,35,56)       -173.6482         estimate D2E/DX2                !
 ! D135  D(33,34,35,57)         69.8396         estimate D2E/DX2                !
 ! D136  D(33,34,35,64)        -51.6095         estimate D2E/DX2                !
 ! D137  D(36,34,35,56)         64.9692         estimate D2E/DX2                !
 ! D138  D(36,34,35,57)        -51.5429         estimate D2E/DX2                !
 ! D139  D(36,34,35,64)       -172.992          estimate D2E/DX2                !
 ! D140  D(58,34,35,56)        -56.4492         estimate D2E/DX2                !
 ! D141  D(58,34,35,57)       -172.9614         estimate D2E/DX2                !
 ! D142  D(58,34,35,64)         65.5895         estimate D2E/DX2                !
 ! D143  D(33,34,36,37)        -77.497          estimate D2E/DX2                !
 ! D144  D(33,34,36,38)        103.8647         estimate D2E/DX2                !
 ! D145  D(35,34,36,37)         44.8792         estimate D2E/DX2                !
 ! D146  D(35,34,36,38)       -133.759          estimate D2E/DX2                !
 ! D147  D(58,34,36,37)        165.427          estimate D2E/DX2                !
 ! D148  D(58,34,36,38)        -13.2112         estimate D2E/DX2                !
 ! D149  D(34,35,64,1)         117.4827         estimate D2E/DX2                !
 ! D150  D(56,35,64,1)        -121.1253         estimate D2E/DX2                !
 ! D151  D(57,35,64,1)          -4.3511         estimate D2E/DX2                !
 ! D152  D(34,36,38,39)        -18.4143         estimate D2E/DX2                !
 ! D153  D(34,36,38,62)       -172.7723         estimate D2E/DX2                !
 ! D154  D(37,36,38,39)        162.9579         estimate D2E/DX2                !
 ! D155  D(37,36,38,62)          8.6            estimate D2E/DX2                !
 ! D156  D(36,38,39,40)       -149.4875         estimate D2E/DX2                !
 ! D157  D(36,38,39,60)         91.6096         estimate D2E/DX2                !
 ! D158  D(36,38,39,61)        -29.1413         estimate D2E/DX2                !
 ! D159  D(62,38,39,40)          4.9046         estimate D2E/DX2                !
 ! D160  D(62,38,39,60)       -113.9982         estimate D2E/DX2                !
 ! D161  D(62,38,39,61)        125.2508         estimate D2E/DX2                !
 ! D162  D(38,39,40,41)         -7.6553         estimate D2E/DX2                !
 ! D163  D(38,39,40,42)        174.2876         estimate D2E/DX2                !
 ! D164  D(60,39,40,41)        113.9341         estimate D2E/DX2                !
 ! D165  D(60,39,40,42)        -64.123          estimate D2E/DX2                !
 ! D166  D(61,39,40,41)       -130.2779         estimate D2E/DX2                !
 ! D167  D(61,39,40,42)         51.665          estimate D2E/DX2                !
 ! D168  D(39,40,42,63)        178.8866         estimate D2E/DX2                !
 ! D169  D(41,40,42,63)          0.8093         estimate D2E/DX2                !
 ! D170  D(2,65,66,68)        -179.6981         estimate D2E/DX2                !
 ! D171  D(2,65,66,69)           1.2664         estimate D2E/DX2                !
 ! D172  D(67,65,66,68)          1.6917         estimate D2E/DX2                !
 ! D173  D(67,65,66,69)       -177.3437         estimate D2E/DX2                !
 ! D174  D(2,65,67,70)        -179.9651         estimate D2E/DX2                !
 ! D175  D(2,65,67,71)          -0.3681         estimate D2E/DX2                !
 ! D176  D(66,65,67,70)         -1.4313         estimate D2E/DX2                !
 ! D177  D(66,65,67,71)        178.1657         estimate D2E/DX2                !
 ! D178  D(65,66,68,72)         -0.796          estimate D2E/DX2                !
 ! D179  D(65,66,68,73)        179.9926         estimate D2E/DX2                !
 ! D180  D(69,66,68,72)        178.2416         estimate D2E/DX2                !
 ! D181  D(69,66,68,73)         -0.9698         estimate D2E/DX2                !
 ! D182  D(65,67,70,72)          0.2684         estimate D2E/DX2                !
 ! D183  D(65,67,70,74)        179.886          estimate D2E/DX2                !
 ! D184  D(71,67,70,72)       -179.3363         estimate D2E/DX2                !
 ! D185  D(71,67,70,74)          0.2812         estimate D2E/DX2                !
 ! D186  D(66,68,72,70)         -0.3835         estimate D2E/DX2                !
 ! D187  D(66,68,72,75)       -178.8444         estimate D2E/DX2                !
 ! D188  D(73,68,72,70)        178.8216         estimate D2E/DX2                !
 ! D189  D(73,68,72,75)          0.3607         estimate D2E/DX2                !
 ! D190  D(67,70,72,68)          0.6508         estimate D2E/DX2                !
 ! D191  D(67,70,72,75)        179.1101         estimate D2E/DX2                !
 ! D192  D(74,70,72,68)       -178.9604         estimate D2E/DX2                !
 ! D193  D(74,70,72,75)         -0.5012         estimate D2E/DX2                !
 --------------------------------------------------------------------------------
 Trust Radius=3.00D-01 FncErr=1.00D-07 GrdErr=1.00D-06
 Number of steps in this run=    418 maximum allowed number of steps=    456.
 GradGradGradGradGradGradGradGradGradGradGradGradGradGradGradGradGradGrad

 Stoichiometry    C23H36AuClN5O7PSSe
 Framework group  C1[X(C23H36AuClN5O7PSSe)]
 Deg. of freedom   222
 Full point group                 C1      NOp   1
 Largest Abelian subgroup         C1      NOp   1
 Largest concise Abelian subgroup C1      NOp   1
                         Standard orientation:                         
 ---------------------------------------------------------------------
 Center     Atomic      Atomic             Coordinates (Angstroms)
 Number     Number       Type             X           Y           Z
 ---------------------------------------------------------------------
      1         79           0        2.032995   -0.525626   -0.170268
      2         15           0        3.914166    0.843514    0.505262
      3          6           0        3.798461    1.351344    2.274513
      4          1           0        4.677587    1.959003    2.512224
      5          1           0        3.853128    0.434599    2.859496
      6          6           0        3.994568    2.403941   -0.498361
      7          1           0        2.960633    2.749461   -0.589334
      8          1           0        4.285335    2.108679   -1.516282
      9          6           0        4.901298    3.515862    0.039751
     10          1           0        4.902411    4.353769   -0.654593
     11          1           0        4.542491    3.896120    1.005067
     12          1           0        5.933516    3.188559    0.184157
     13          6           0        2.492888    2.103073    2.596216
     14          1           0        1.618032    1.474869    2.411193
     15          1           0        2.481017    2.376274    3.659239
     16          1           0        2.389933    3.022175    2.023931
     17          7           0       -5.658148    2.572800    2.533345
     18          6           0       -4.546407    2.488188    1.582646
     19          6           0       -4.925001    1.625703    0.368562
     20          8           0       -5.533524    0.574161    0.528099
     21          6           0       -3.349030    1.857019    2.344707
     22          8           0       -2.141083    1.792757    1.593651
     23          7           0       -4.617892    2.040585   -0.912899
     24          6           0       -3.884594    3.224554   -1.340408
     25          6           0       -2.409266    3.242496   -0.916565
     26          8           0       -2.014773    4.086202   -0.091982
     27          7           0       -1.553711    2.323912   -1.423234
     28          6           0       -1.791408    1.206561   -2.330874
     29          6           0       -2.498487   -0.042644   -1.763852
     30          8           0       -3.150285   -0.738816   -2.546467
     31          6           0       -0.428019    0.761221   -2.982899
     32         16           0        1.263449    0.975462   -2.091139
     33          7           0       -2.258496   -0.359475   -0.477183
     34          6           0       -2.324033   -1.745124   -0.032805
     35          6           0       -0.915323   -2.309477    0.281134
     36          6           0       -3.191637   -1.848976    1.233753
     37          8           0       -2.747741   -1.518810    2.327113
     38          7           0       -4.456444   -2.346685    1.097057
     39          6           0       -5.216247   -2.447414   -0.138010
     40          6           0       -6.688013   -2.311860    0.192557
     41          8           0       -7.144473   -2.279818    1.313256
     42          8           0       -7.434925   -2.273092   -0.922407
     43          1           0       -3.215311    2.454606    3.267633
     44          1           0       -3.585416    0.829426    2.630103
     45          1           0       -1.889195    2.700890    1.344336
     46          1           0       -4.267633    3.505301    1.288488
     47          1           0       -6.048108    1.634869    2.635202
     48          1           0       -6.405872    3.143500    2.131694
     49          1           0       -4.332629    4.138540   -0.929885
     50          1           0       -3.973340    3.274496   -2.426762
     51          1           0       -4.884314    1.367032   -1.619217
     52          1           0       -0.234647    1.461621   -3.818908
     53          1           0       -0.529751   -0.269810   -3.378858
     54          1           0       -2.421439    1.532855   -3.182650
     55          1           0       -0.600080    2.393620   -1.076196
     56          1           0       -0.995819   -3.396537    0.504431
     57          1           0       -0.513899   -1.839679    1.181213
     58          1           0       -2.765192   -2.304539   -0.853080
     59          1           0       -1.897886    0.344753    0.170864
     60          1           0       -5.071076   -3.419184   -0.636116
     61          1           0       -4.944529   -1.671577   -0.861149
     62          1           0       -5.022326   -2.288095    1.930762
     63          1           0       -8.360825   -2.203957   -0.621907
     64         34           0        0.319479   -2.006449   -1.225964
     65          6           0        5.530188   -0.006526    0.330703
     66          6           0        5.741916   -1.177371    1.084046
     67          6           0        6.535043    0.438224   -0.530395
     68          6           0        6.959158   -1.858846    0.991253
     69          1           0        4.954708   -1.561409    1.726098
     70          6           0        7.749093   -0.253161   -0.621723
     71          1           0        6.387388    1.326000   -1.149045
     72          6           0        7.960809   -1.393251    0.142126
     73          1           0        7.113061   -2.762299    1.577312
     74          1           0        8.517307    0.111991   -1.302036
     75          1           0        8.898523   -1.937469    0.059527
     76         17           0        2.248190   -1.784980    1.962364
 ---------------------------------------------------------------------
 Rotational constants (GHZ):      0.1208648      0.0368642      0.0339944
 General basis read from cards:  (5D, 7F)
 ======================================================================================================
                                       Pseudopotential Parameters
 ======================================================================================================
  Center     Atomic      Valence      Angular      Power
  Number     Number     Electrons     Momentum     of R      Exponent        Coefficient   SO-Coeffient
 ======================================================================================================
    1         79           19
                                      G and up 
                                                     1      622.6287956      -60.00000000    0.00000000
                                                     2      136.2843607     -555.52923120    0.00000000
                                                     2       33.1549781     -168.00197850    0.00000000
                                                     2        9.9894895      -63.03998750    0.00000000
                                                     2        3.0481312       -4.25166810    0.00000000
                                      S - G
                                                     0      194.7374304        3.00000000    0.00000000
                                                     1      351.5327447       38.60208800    0.00000000
                                                     2      122.3270402      864.83707270    0.00000000
                                                     2       32.0914617      374.99355200    0.00000000
                                                     2        5.2451812      289.79101000    0.00000000
                                                     2        4.4916223     -152.45327730    0.00000000
                                      P - G
                                                     0      420.6158801        2.00000000    0.00000000
                                                     1      109.4417815       73.88856250    0.00000000
                                                     2       34.1714280      326.67298720    0.00000000
                                                     2        5.9879750      126.58145910    0.00000000
                                      D - G
                                                     0      219.2666158        3.00000000    0.00000000
                                                     1      122.7297786       55.67931490    0.00000000
                                                     2       63.1063369      449.19873350    0.00000000
                                                     2       18.3684520      215.02690910    0.00000000
                                                     2        4.4972844       64.08409950    0.00000000
                                      F - G
                                                     0      108.5506037        4.00000000    0.00000000
                                                     1       56.4795527       51.80653350    0.00000000
                                                     2       29.2069159      231.21831130    0.00000000
                                                     2        9.5440543      119.00473860    0.00000000
                                                     2        2.8965118       15.34241880    0.00000000
    2         15
                                   No pseudopotential on this center.
    3          6
                                   No pseudopotential on this center.
    4          1
                                   No pseudopotential on this center.
    5          1
                                   No pseudopotential on this center.
    6          6
                                   No pseudopotential on this center.
    7          1
                                   No pseudopotential on this center.
    8          1
                                   No pseudopotential on this center.
    9          6
                                   No pseudopotential on this center.
   10          1
                                   No pseudopotential on this center.
   11          1
                                   No pseudopotential on this center.
   12          1
                                   No pseudopotential on this center.
   13          6
                                   No pseudopotential on this center.
   14          1
                                   No pseudopotential on this center.
   15          1
                                   No pseudopotential on this center.
   16          1
                                   No pseudopotential on this center.
   17          7
                                   No pseudopotential on this center.
   18          6
                                   No pseudopotential on this center.
   19          6
                                   No pseudopotential on this center.
   20          8
                                   No pseudopotential on this center.
   21          6
                                   No pseudopotential on this center.
   22          8
                                   No pseudopotential on this center.
   23          7
                                   No pseudopotential on this center.
   24          6
                                   No pseudopotential on this center.
   25          6
                                   No pseudopotential on this center.
   26          8
                                   No pseudopotential on this center.
   27          7
                                   No pseudopotential on this center.
   28          6
                                   No pseudopotential on this center.
   29          6
                                   No pseudopotential on this center.
   30          8
                                   No pseudopotential on this center.
   31          6
                                   No pseudopotential on this center.
   32         16
                                   No pseudopotential on this center.
   33          7
                                   No pseudopotential on this center.
   34          6
                                   No pseudopotential on this center.
   35          6
                                   No pseudopotential on this center.
   36          6
                                   No pseudopotential on this center.
   37          8
                                   No pseudopotential on this center.
   38          7
                                   No pseudopotential on this center.
   39          6
                                   No pseudopotential on this center.
   40          6
                                   No pseudopotential on this center.
   41          8
                                   No pseudopotential on this center.
   42          8
                                   No pseudopotential on this center.
   43          1
                                   No pseudopotential on this center.
   44          1
                                   No pseudopotential on this center.
   45          1
                                   No pseudopotential on this center.
   46          1
                                   No pseudopotential on this center.
   47          1
                                   No pseudopotential on this center.
   48          1
                                   No pseudopotential on this center.
   49          1
                                   No pseudopotential on this center.
   50          1
                                   No pseudopotential on this center.
   51          1
                                   No pseudopotential on this center.
   52          1
                                   No pseudopotential on this center.
   53          1
                                   No pseudopotential on this center.
   54          1
                                   No pseudopotential on this center.
   55          1
                                   No pseudopotential on this center.
   56          1
                                   No pseudopotential on this center.
   57          1
                                   No pseudopotential on this center.
   58          1
                                   No pseudopotential on this center.
   59          1
                                   No pseudopotential on this center.
   60          1
                                   No pseudopotential on this center.
   61          1
                                   No pseudopotential on this center.
   62          1
                                   No pseudopotential on this center.
   63          1
                                   No pseudopotential on this center.
   64         34
                                   No pseudopotential on this center.
   65          6
                                   No pseudopotential on this center.
   66          6
                                   No pseudopotential on this center.
   67          6
                                   No pseudopotential on this center.
   68          6
                                   No pseudopotential on this center.
   69          1
                                   No pseudopotential on this center.
   70          6
                                   No pseudopotential on this center.
   71          1
                                   No pseudopotential on this center.
   72          6
                                   No pseudopotential on this center.
   73          1
                                   No pseudopotential on this center.
   74          1
                                   No pseudopotential on this center.
   75          1
                                   No pseudopotential on this center.
   76         17
                                   No pseudopotential on this center.
 ======================================================================================================
 There are   732 symmetry adapted cartesian basis functions of A   symmetry.
 There are   686 symmetry adapted basis functions of A   symmetry.
   686 basis functions,  1411 primitive gaussians,   732 cartesian basis functions
   183 alpha electrons      183 beta electrons
       nuclear repulsion energy      7113.7948988061 Hartrees.
 NAtoms=   76 NActive=   76 NUniq=   76 SFac= 1.00D+00 NAtFMM=   60 NAOKFM=T Big=T
 Integral buffers will be    131072 words long.
 Raffenetti 2 integral format.
 Two-electron integral symmetry is turned on.
 One-electron integrals computed using PRISM.
   1 Symmetry operations used in ECPInt.
 ECPInt:  NShTT=   32131 NPrTT=  196519 LenC2=   23430 LenP2D=   73273.
 LDataN:  DoStor=T MaxTD1= 7 Len=  274
 NBasis=   686 RedAO= T EigKep=  5.03D-04  NBF=   686
 NBsUse=   686 1.00D-06 EigRej= -1.00D+00 NBFU=   686
 Defaulting to unpruned grid for atomic number  79.
 ExpMin= 2.79D-02 ExpMax= 5.61D+05 ExpMxC= 5.42D+03 IAcc=3 IRadAn=         5 AccDes= 0.00D+00
 Harris functional with IExCor=  402 and IRadAn=       5 diagonalized for initial guess.
 HarFok:  IExCor=  402 AccDes= 0.00D+00 IRadAn=         5 IDoV= 1 UseB2=F ITyADJ=14
 ICtDFT=  3500011 ScaDFX=  1.000000  1.000000  1.000000  1.000000
 Defaulting to unpruned grid for atomic number  79.
 Defaulting to unpruned grid for atomic number  79.
 Defaulting to unpruned grid for atomic number  79.
 Defaulting to unpruned grid for atomic number  79.
 Defaulting to unpruned grid for atomic number  79.
 Defaulting to unpruned grid for atomic number  79.
 Defaulting to unpruned grid for atomic number  79.
 Defaulting to unpruned grid for atomic number  79.
 FoFCou: FMM=F IPFlag=           0 FMFlag=      100000 FMFlg1=        2001
         NFxFlg=           0 DoJE=T BraDBF=F KetDBF=T FulRan=T
         wScrn=  0.000000 ICntrl=     500 IOpCl=  0 I1Cent=   200000004 NGrid=           0
         NMat0=    1 NMatS0=      1 NMatT0=    0 NMatD0=    1 NMtDS0=    0 NMtDT0=    0
 Petite list used in FoFCou.
 Requested convergence on RMS density matrix=1.00D-08 within 128 cycles.
 Requested convergence on MAX density matrix=1.00D-06.
 Requested convergence on             energy=1.00D-06.
 No special actions if energy rises.
 Defaulting to unpruned grid for atomic number  79.
 Defaulting to unpruned grid for atomic number  79.
 Defaulting to unpruned grid for atomic number  79.
 Defaulting to unpruned grid for atomic number  79.
 Defaulting to unpruned grid for atomic number  79.
 Defaulting to unpruned grid for atomic number  79.
 Defaulting to unpruned grid for atomic number  79.
 Defaulting to unpruned grid for atomic number  79.
 EnCoef did     3 forward-backward iterations
 EnCoef did   100 forward-backward iterations
 SCF Done:  E(RB3LYP) =  -5432.66807041     A.U. after   20 cycles
            NFock= 20  Conv=0.76D-08     -V/T= 2.0183

 **********************************************************************

            Population analysis using the SCF density.

 **********************************************************************

 Orbital symmetries:
       Occupied  (A) (A) (A) (A) (A) (A) (A) (A) (A) (A) (A) (A)
                 (A) (A) (A) (A) (A) (A) (A) (A) (A) (A) (A) (A)
                 (A) (A) (A) (A) (A) (A) (A) (A) (A) (A) (A) (A)
                 (A) (A) (A) (A) (A) (A) (A) (A) (A) (A) (A) (A)
                 (A) (A) (A) (A) (A) (A) (A) (A) (A) (A) (A) (A)
                 (A) (A) (A) (A) (A) (A) (A) (A) (A) (A) (A) (A)
                 (A) (A) (A) (A) (A) (A) (A) (A) (A) (A) (A) (A)
                 (A) (A) (A) (A) (A) (A) (A) (A) (A) (A) (A) (A)
                 (A) (A) (A) (A) (A) (A) (A) (A) (A) (A) (A) (A)
                 (A) (A) (A) (A) (A) (A) (A) (A) (A) (A) (A) (A)
                 (A) (A) (A) (A) (A) (A) (A) (A) (A) (A) (A) (A)
                 (A) (A) (A) (A) (A) (A) (A) (A) (A) (A) (A) (A)
                 (A) (A) (A) (A) (A) (A) (A) (A) (A) (A) (A) (A)
                 (A) (A) (A) (A) (A) (A) (A) (A) (A) (A) (A) (A)
                 (A) (A) (A) (A) (A) (A) (A) (A) (A) (A) (A) (A)
                 (A) (A) (A)
       Virtual   (A) (A) (A) (A) (A) (A) (A) (A) (A) (A) (A) (A)
                 (A) (A) (A) (A) (A) (A) (A) (A) (A) (A) (A) (A)
                 (A) (A) (A) (A) (A) (A) (A) (A) (A) (A) (A) (A)
                 (A) (A) (A) (A) (A) (A) (A) (A) (A) (A) (A) (A)
                 (A) (A) (A) (A) (A) (A) (A) (A) (A) (A) (A) (A)
                 (A) (A) (A) (A) (A) (A) (A) (A) (A) (A) (A) (A)
                 (A) (A) (A) (A) (A) (A) (A) (A) (A) (A) (A) (A)
                 (A) (A) (A) (A) (A) (A) (A) (A) (A) (A) (A) (A)
                 (A) (A) (A) (A) (A) (A) (A) (A) (A) (A) (A) (A)
                 (A) (A) (A) (A) (A) (A) (A) (A) (A) (A) (A) (A)
                 (A) (A) (A) (A) (A) (A) (A) (A) (A) (A) (A) (A)
                 (A) (A) (A) (A) (A) (A) (A) (A) (A) (A) (A) (A)
                 (A) (A) (A) (A) (A) (A) (A) (A) (A) (A) (A) (A)
                 (A) (A) (A) (A) (A) (A) (A) (A) (A) (A) (A) (A)
                 (A) (A) (A) (A) (A) (A) (A) (A) (A) (A) (A) (A)
                 (A) (A) (A) (A) (A) (A) (A) (A) (A) (A) (A) (A)
                 (A) (A) (A) (A) (A) (A) (A) (A) (A) (A) (A) (A)
                 (A) (A) (A) (A) (A) (A) (A) (A) (A) (A) (A) (A)
                 (A) (A) (A) (A) (A) (A) (A) (A) (A) (A) (A) (A)
                 (A) (A) (A) (A) (A) (A) (A) (A) (A) (A) (A) (A)
                 (A) (A) (A) (A) (A) (A) (A) (A) (A) (A) (A) (A)
                 (A) (A) (A) (A) (A) (A) (A) (A) (A) (A) (A) (A)
                 (A) (A) (A) (A) (A) (A) (A) (A) (A) (A) (A) (A)
                 (A) (A) (A) (A) (A) (A) (A) (A) (A) (A) (A) (A)
                 (A) (A) (A) (A) (A) (A) (A) (A) (A) (A) (A) (A)
                 (A) (A) (A) (A) (A) (A) (A) (A) (A) (A) (A) (A)
                 (A) (A) (A) (A) (A) (A) (A) (A) (A) (A) (A) (A)
                 (A) (A) (A) (A) (A) (A) (A) (A) (A) (A) (A) (A)
                 (A) (A) (A) (A) (A) (A) (A) (A) (A) (A) (A) (A)
                 (A) (A) (A) (A) (A) (A) (A) (A) (A) (A) (A) (A)
                 (A) (A) (A) (A) (A) (A) (A) (A) (A) (A) (A) (A)
                 (A) (A) (A) (A) (A) (A) (A) (A) (A) (A) (A) (A)
                 (A) (A) (A) (A) (A) (A) (A) (A) (A) (A) (A) (A)
                 (A) (A) (A) (A) (A) (A) (A) (A) (A) (A) (A) (A)
                 (A) (A) (A) (A) (A) (A) (A) (A) (A) (A) (A) (A)
                 (A) (A) (A) (A) (A) (A) (A) (A) (A) (A) (A) (A)
                 (A) (A) (A) (A) (A) (A) (A) (A) (A) (A) (A) (A)
                 (A) (A) (A) (A) (A) (A) (A) (A) (A) (A) (A) (A)
                 (A) (A) (A) (A) (A) (A) (A) (A) (A) (A) (A) (A)
                 (A) (A) (A) (A) (A) (A) (A) (A) (A) (A) (A) (A)
                 (A) (A) (A) (A) (A) (A) (A) (A) (A) (A) (A) (A)
                 (A) (A) (A) (A) (A) (A) (A) (A) (A) (A) (A)
 The electronic state is 1-A.
 Alpha  occ. eigenvalues -- -453.54773-101.47283 -88.87821 -77.13429 -57.26711
 Alpha  occ. eigenvalues --  -52.04274 -52.04175 -52.03914 -19.19603 -19.14081
 Alpha  occ. eigenvalues --  -19.13831 -19.13020 -19.11869 -19.11643 -19.10068
 Alpha  occ. eigenvalues --  -14.37392 -14.36792 -14.35048 -14.34106 -14.30741
 Alpha  occ. eigenvalues --  -10.32241 -10.30688 -10.28828 -10.28804 -10.27465
 Alpha  occ. eigenvalues --  -10.25648 -10.24768 -10.23827 -10.22459 -10.22453
 Alpha  occ. eigenvalues --  -10.22270 -10.21955 -10.21591 -10.21529 -10.21504
 Alpha  occ. eigenvalues --  -10.21180 -10.20777 -10.20703 -10.20683 -10.20473
 Alpha  occ. eigenvalues --  -10.20245 -10.19806 -10.18968  -9.40207  -7.94944
 Alpha  occ. eigenvalues --   -7.61753  -7.16344  -7.15683  -7.15648  -6.61343
 Alpha  occ. eigenvalues --   -5.91371  -5.91049  -5.90389  -5.74776  -5.74452
 Alpha  occ. eigenvalues --   -5.73489  -4.77498  -4.77446  -4.77296  -4.22797
 Alpha  occ. eigenvalues --   -2.36820  -2.36321  -2.34466  -2.10958  -2.10934
 Alpha  occ. eigenvalues --   -2.10135  -2.09875  -2.09691  -1.11300  -1.05125
 Alpha  occ. eigenvalues --   -1.04092  -1.03692  -1.02492  -1.02011  -1.01300
 Alpha  occ. eigenvalues --   -0.94591  -0.92971  -0.92230  -0.91239  -0.88449
 Alpha  occ. eigenvalues --   -0.87817  -0.82103  -0.79614  -0.78216  -0.77234
 Alpha  occ. eigenvalues --   -0.77129  -0.76574  -0.74874  -0.74710  -0.74253
 Alpha  occ. eigenvalues --   -0.72124  -0.71519  -0.69332  -0.68629  -0.65348
 Alpha  occ. eigenvalues --   -0.64636  -0.62615  -0.62457  -0.62348  -0.61952
 Alpha  occ. eigenvalues --   -0.61515  -0.60008  -0.59101  -0.57724  -0.57451
 Alpha  occ. eigenvalues --   -0.57229  -0.53980  -0.53355  -0.52435  -0.51684
 Alpha  occ. eigenvalues --   -0.50536  -0.50111  -0.49609  -0.49397  -0.49022
 Alpha  occ. eigenvalues --   -0.48597  -0.48524  -0.48089  -0.47662  -0.47580
 Alpha  occ. eigenvalues --   -0.46724  -0.46660  -0.45474  -0.44887  -0.44833
 Alpha  occ. eigenvalues --   -0.44351  -0.44286  -0.44162  -0.43855  -0.43818
 Alpha  occ. eigenvalues --   -0.43346  -0.43270  -0.42235  -0.41939  -0.41678
 Alpha  occ. eigenvalues --   -0.41486  -0.41051  -0.40996  -0.40690  -0.40305
 Alpha  occ. eigenvalues --   -0.40182  -0.40058  -0.39763  -0.39184  -0.38950
 Alpha  occ. eigenvalues --   -0.38747  -0.38653  -0.38219  -0.37986  -0.37572
 Alpha  occ. eigenvalues --   -0.37511  -0.37357  -0.37075  -0.36842  -0.36663
 Alpha  occ. eigenvalues --   -0.36267  -0.36020  -0.34599  -0.34495  -0.34048
 Alpha  occ. eigenvalues --   -0.32702  -0.32474  -0.32217  -0.31730  -0.29037
 Alpha  occ. eigenvalues --   -0.28548  -0.28421  -0.28210  -0.27670  -0.27269
 Alpha  occ. eigenvalues --   -0.27151  -0.27107  -0.26559  -0.26522  -0.26156
 Alpha  occ. eigenvalues --   -0.25501  -0.25072  -0.24901  -0.24412  -0.24297
 Alpha  occ. eigenvalues --   -0.23605  -0.23245  -0.20509
 Alpha virt. eigenvalues --   -0.12850  -0.04098  -0.02583  -0.01673  -0.01023
 Alpha virt. eigenvalues --   -0.00326   0.00225   0.00963   0.01562   0.02212
 Alpha virt. eigenvalues --    0.02296   0.03367   0.04443   0.04772   0.05451
 Alpha virt. eigenvalues --    0.06081   0.07079   0.07354   0.07579   0.08914
 Alpha virt. eigenvalues --    0.09085   0.09702   0.09944   0.10472   0.11037
 Alpha virt. eigenvalues --    0.11343   0.11405   0.12391   0.12702   0.12707
 Alpha virt. eigenvalues --    0.13197   0.13459   0.13937   0.14009   0.14345
 Alpha virt. eigenvalues --    0.14581   0.14714   0.15439   0.15898   0.16000
 Alpha virt. eigenvalues --    0.16329   0.16366   0.16587   0.16934   0.17135
 Alpha virt. eigenvalues --    0.17590   0.18074   0.18267   0.18882   0.19021
 Alpha virt. eigenvalues --    0.19163   0.19355   0.19574   0.20026   0.20540
 Alpha virt. eigenvalues --    0.20734   0.21034   0.21052   0.21449   0.21609
 Alpha virt. eigenvalues --    0.22180   0.22459   0.23045   0.23426   0.24085
 Alpha virt. eigenvalues --    0.24309   0.25054   0.25278   0.25393   0.26043
 Alpha virt. eigenvalues --    0.26511   0.27277   0.27760   0.28337   0.28811
 Alpha virt. eigenvalues --    0.29316   0.30971   0.31105   0.32402   0.33364
 Alpha virt. eigenvalues --    0.34223   0.34372   0.35152   0.35774   0.36467
 Alpha virt. eigenvalues --    0.36522   0.36619   0.37550   0.37928   0.38801
 Alpha virt. eigenvalues --    0.39774   0.40034   0.40937   0.41611   0.42225
 Alpha virt. eigenvalues --    0.42553   0.43039   0.44455   0.45342   0.45585
 Alpha virt. eigenvalues --    0.46910   0.47205   0.47660   0.48306   0.49084
 Alpha virt. eigenvalues --    0.50608   0.50823   0.50972   0.51317   0.52010
 Alpha virt. eigenvalues --    0.52230   0.52566   0.53159   0.53648   0.53778
 Alpha virt. eigenvalues --    0.54381   0.54533   0.54727   0.55238   0.55555
 Alpha virt. eigenvalues --    0.55792   0.55938   0.56332   0.56790   0.56981
 Alpha virt. eigenvalues --    0.57579   0.57922   0.58847   0.59265   0.59350
 Alpha virt. eigenvalues --    0.59487   0.59541   0.59926   0.60320   0.60984
 Alpha virt. eigenvalues --    0.61537   0.62058   0.62133   0.63014   0.63345
 Alpha virt. eigenvalues --    0.63879   0.64437   0.64921   0.65007   0.65738
 Alpha virt. eigenvalues --    0.65880   0.66348   0.67040   0.67215   0.67579
 Alpha virt. eigenvalues --    0.67751   0.68357   0.68946   0.69574   0.69957
 Alpha virt. eigenvalues --    0.70211   0.70385   0.71052   0.72422   0.72790
 Alpha virt. eigenvalues --    0.73296   0.73386   0.73878   0.74336   0.74570
 Alpha virt. eigenvalues --    0.74978   0.75641   0.76020   0.76912   0.77502
 Alpha virt. eigenvalues --    0.77523   0.78322   0.78998   0.79297   0.79867
 Alpha virt. eigenvalues --    0.80519   0.80730   0.81150   0.81566   0.81769
 Alpha virt. eigenvalues --    0.82535   0.82633   0.82851   0.83523   0.83823
 Alpha virt. eigenvalues --    0.83998   0.84133   0.84378   0.84917   0.85081
 Alpha virt. eigenvalues --    0.85327   0.85826   0.86039   0.86368   0.86670
 Alpha virt. eigenvalues --    0.86952   0.87186   0.87407   0.87785   0.88229
 Alpha virt. eigenvalues --    0.88351   0.89060   0.89093   0.89523   0.89795
 Alpha virt. eigenvalues --    0.90181   0.90504   0.90739   0.90791   0.90959
 Alpha virt. eigenvalues --    0.91480   0.91674   0.92119   0.92389   0.92713
 Alpha virt. eigenvalues --    0.93273   0.93658   0.94103   0.94539   0.94892
 Alpha virt. eigenvalues --    0.94967   0.95292   0.95589   0.96073   0.96249
 Alpha virt. eigenvalues --    0.97128   0.97541   0.97801   0.98187   0.98453
 Alpha virt. eigenvalues --    0.98717   0.99011   0.99417   0.99939   1.00785
 Alpha virt. eigenvalues --    1.01177   1.01356   1.02059   1.02281   1.02519
 Alpha virt. eigenvalues --    1.02972   1.03977   1.04357   1.04898   1.05055
 Alpha virt. eigenvalues --    1.06093   1.06502   1.06682   1.07263   1.07728
 Alpha virt. eigenvalues --    1.08265   1.08716   1.09974   1.10647   1.11404
 Alpha virt. eigenvalues --    1.12607   1.13020   1.13447   1.13678   1.14305
 Alpha virt. eigenvalues --    1.15211   1.15833   1.16529   1.17190   1.17582
 Alpha virt. eigenvalues --    1.18822   1.19168   1.19849   1.20967   1.22524
 Alpha virt. eigenvalues --    1.22972   1.23446   1.24893   1.25116   1.25589
 Alpha virt. eigenvalues --    1.26906   1.27335   1.28030   1.28429   1.31518
 Alpha virt. eigenvalues --    1.33093   1.33787   1.34297   1.35744   1.36945
 Alpha virt. eigenvalues --    1.37279   1.37785   1.38162   1.39715   1.39874
 Alpha virt. eigenvalues --    1.41356   1.41976   1.42470   1.42630   1.44718
 Alpha virt. eigenvalues --    1.45327   1.46303   1.46381   1.47107   1.47312
 Alpha virt. eigenvalues --    1.47694   1.49081   1.49747   1.50885   1.51264
 Alpha virt. eigenvalues --    1.52640   1.53065   1.53286   1.55016   1.56559
 Alpha virt. eigenvalues --    1.57453   1.58808   1.59379   1.59818   1.60751
 Alpha virt. eigenvalues --    1.61989   1.62808   1.63103   1.63949   1.64544
 Alpha virt. eigenvalues --    1.64987   1.67168   1.67359   1.67902   1.70020
 Alpha virt. eigenvalues --    1.70289   1.70551   1.70964   1.72246   1.73131
 Alpha virt. eigenvalues --    1.74621   1.76380   1.77072   1.77394   1.78111
 Alpha virt. eigenvalues --    1.78452   1.79026   1.80002   1.80133   1.80661
 Alpha virt. eigenvalues --    1.81828   1.82233   1.82376   1.82664   1.83730
 Alpha virt. eigenvalues --    1.83818   1.84162   1.84283   1.85403   1.86108
 Alpha virt. eigenvalues --    1.87274   1.87688   1.88077   1.88531   1.89844
 Alpha virt. eigenvalues --    1.89929   1.90988   1.91408   1.92256   1.92747
 Alpha virt. eigenvalues --    1.93446   1.93601   1.94051   1.94099   1.94561
 Alpha virt. eigenvalues --    1.94925   1.95416   1.95750   1.96290   1.96425
 Alpha virt. eigenvalues --    1.96487   1.96876   1.97049   1.97665   1.97826
 Alpha virt. eigenvalues --    1.98352   1.98899   1.98938   1.99841   1.99966
 Alpha virt. eigenvalues --    2.00445   2.00893   2.01734   2.02122   2.02757
 Alpha virt. eigenvalues --    2.03530   2.04169   2.04430   2.05248   2.05800
 Alpha virt. eigenvalues --    2.06685   2.07046   2.07511   2.08271   2.09333
 Alpha virt. eigenvalues --    2.09517   2.10892   2.11061   2.11325   2.11657
 Alpha virt. eigenvalues --    2.12283   2.12396   2.13101   2.13543   2.13762
 Alpha virt. eigenvalues --    2.14399   2.14783   2.15168   2.15635   2.16006
 Alpha virt. eigenvalues --    2.17064   2.19295   2.19938   2.20520   2.21127
 Alpha virt. eigenvalues --    2.21940   2.22358   2.24427   2.25003   2.25597
 Alpha virt. eigenvalues --    2.25947   2.27017   2.27262   2.27847   2.28233
 Alpha virt. eigenvalues --    2.28530   2.29941   2.30475   2.31160   2.31565
 Alpha virt. eigenvalues --    2.31719   2.32167   2.32864   2.33367   2.33550
 Alpha virt. eigenvalues --    2.34131   2.34358   2.38362   2.38535   2.41071
 Alpha virt. eigenvalues --    2.42217   2.42908   2.44413   2.44989   2.45518
 Alpha virt. eigenvalues --    2.47601   2.49563   2.51050   2.52263   2.53213
 Alpha virt. eigenvalues --    2.53806   2.56143   2.56394   2.57769   2.58196
 Alpha virt. eigenvalues --    2.58939   2.59353   2.60588   2.60727   2.61851
 Alpha virt. eigenvalues --    2.62206   2.62744   2.63569   2.64929   2.65717
 Alpha virt. eigenvalues --    2.65833   2.66617   2.67852   2.68419   2.68826
 Alpha virt. eigenvalues --    2.69235   2.71148   2.71952   2.73573   2.74544
 Alpha virt. eigenvalues --    2.75356   2.76578   2.77185   2.83124   2.84107
 Alpha virt. eigenvalues --    2.86140   2.88482   2.90754   2.92856   2.95639
 Alpha virt. eigenvalues --    2.96994   2.99280   2.99463   3.01377   3.02099
 Alpha virt. eigenvalues --    3.07002   3.08373   3.09337   3.13929   3.14854
 Alpha virt. eigenvalues --    3.17626   3.18719   3.36559   8.00470  15.55298
 Alpha virt. eigenvalues --   15.62630  15.66790  43.10986
          Condensed to atoms (all electrons):
 Mulliken charges:
               1
     1  Au  -0.179302
     2  P    0.598238
     3  C   -0.452178
     4  H    0.180792
     5  H    0.221704
     6  C   -0.483787
     7  H    0.213749
     8  H    0.200030
     9  C   -0.460231
    10  H    0.168938
    11  H    0.165102
    12  H    0.166386
    13  C   -0.485882
    14  H    0.226172
    15  H    0.169061
    16  H    0.158333
    17  N   -0.702115
    18  C   -0.115702
    19  C    0.551849
    20  O   -0.487544
    21  C   -0.030463
    22  O   -0.658393
    23  N   -0.589136
    24  C   -0.231207
    25  C    0.545460
    26  O   -0.504713
    27  N   -0.569398
    28  C   -0.025109
    29  C    0.548015
    30  O   -0.500496
    31  C   -0.438588
    32  S   -0.021339
    33  N   -0.583849
    34  C   -0.060597
    35  C   -0.365559
    36  C    0.550061
    37  O   -0.471825
    38  N   -0.576240
    39  C   -0.205362
    40  C    0.557252
    41  O   -0.427068
    42  O   -0.567177
    43  H    0.148021
    44  H    0.189564
    45  H    0.425916
    46  H    0.148688
    47  H    0.320540
    48  H    0.299315
    49  H    0.191253
    50  H    0.176216
    51  H    0.345491
    52  H    0.190410
    53  H    0.232117
    54  H    0.164821
    55  H    0.362771
    56  H    0.184418
    57  H    0.246687
    58  H    0.184935
    59  H    0.400979
    60  H    0.180495
    61  H    0.223095
    62  H    0.354551
    63  H    0.419129
    64  Se  -0.110646
    65  C   -0.070928
    66  C   -0.162554
    67  C   -0.168479
    68  C   -0.122511
    69  H    0.192232
    70  C   -0.117318
    71  H    0.139153
    72  C   -0.123317
    73  H    0.150047
    74  H    0.141592
    75  H    0.143716
    76  Cl  -0.308280
 Sum of Mulliken charges =   0.00000
 Mulliken charges with hydrogens summed into heavy atoms:
               1
     1  Au  -0.179302
     2  P    0.598238
     3  C   -0.049682
     6  C   -0.070008
     9  C    0.040195
    13  C    0.067684
    17  N   -0.082261
    18  C    0.032985
    19  C    0.551849
    20  O   -0.487544
    21  C    0.307122
    22  O   -0.232476
    23  N   -0.243644
    24  C    0.136263
    25  C    0.545460
    26  O   -0.504713
    27  N   -0.206627
    28  C    0.139711
    29  C    0.548015
    30  O   -0.500496
    31  C   -0.016061
    32  S   -0.021339
    33  N   -0.182869
    34  C    0.124338
    35  C    0.065545
    36  C    0.550061
    37  O   -0.471825
    38  N   -0.221690
    39  C    0.198227
    40  C    0.557252
    41  O   -0.427068
    42  O   -0.148048
    64  Se  -0.110646
    65  C   -0.070928
    66  C    0.029678
    67  C   -0.029326
    68  C    0.027536
    70  C    0.024274
    72  C    0.020398
    76  Cl  -0.308280
 Electronic spatial extent (au):  <R**2>=          30439.8128
 Charge=              0.0000 electrons
 Dipole moment (field-independent basis, Debye):
    X=              4.9559    Y=              5.6257    Z=             -4.5592  Tot=              8.7747
 Quadrupole moment (field-independent basis, Debye-Ang):
   XX=           -223.6706   YY=           -283.3848   ZZ=           -299.2328
   XY=              5.0825   XZ=             20.6529   YZ=             -4.3686
 Traceless Quadrupole moment (field-independent basis, Debye-Ang):
[...]
 0,-0.00001626,0.00001172,-0.00000208,0.00001000,-0.00000455,-0.0000031
 9,0.00000207,-0.00000266,0.00000186,-0.00000063,-0.00000032,0.00000029
 ,-0.00001246,0.00000917,0.00000546,0.00000013,0.00000047,0.00000225,-0
 .00000234,0.00000094,0.00000195,-0.00000314,0.00000039,0.00000296,-0.0
 0000246,-0.00000007,-0.00000153,0.00001476,0.00005466,0.00002622,0.002
 25725,0.00170574,0.00356505,-0.00069289,-0.00015456,0.00013058,0.00152
 223,0.00269186,-0.00166717,-0.00110742,0.00497033,0.00191955,-0.000215
 05,-0.00052171,-0.00049001,0.11342507,0.09529581,-0.22171509,-0.000930
 95,-0.00216120,-0.00082044,0.01028248,0.00520273,-0.00995215,0.0006315
 6,0.00030405,-0.00050571,-0.12382050,-0.10565701,0.23018599,0.00001209
 ,0.00006831,0.00007574,0.00004536,-0.00026078,-0.00020602,-0.00005937,
 -0.00001661,-0.00000530,0.00000760,-0.00000886,-0.00000690,0.00002709,
 0.00000632,-0.00003179,-0.00006862,-0.00001585,-0.00001692,0.00000064,
 0.00002249,0.00000881,0.00003280,-0.00001161,0.00002326,0.00001723,-0.
 00000178,0.00000648,-0.00000750,0.00000761,-0.00000167,-0.00000981,0.0
 0000427,0.00000878,-0.00002219,-0.00002292,-0.00001508,0.00002127,0.00
 000977,0.00000082,0.00000353,-0.00000046,-0.00000229,-0.00000476,0.000
 00500,0.00000859,-0.00000830,0.00000515,-0.00000045,-0.00000724,0.0000
 0481,0.00000673,0.00000363,-0.00000193,-0.00000220,0.00001198,0.000007
 99,-0.00001126,-0.00001310,-0.00000575,0.00000345,0.00002474,-0.000004
 52,-0.00001371,-0.00003387,0.00000472,0.00000980,-0.00001437,0.0000038
 4,0.00000893,0.00000498,-0.00000048,-0.00000154,0.00002763,-0.00001885
 ,-0.00000193,-0.00002504,0.00001250,-0.00000026,-0.00001916,0.00001185
 ,0.00000093,-0.00000175,-0.00000176,-0.00000139,0.00002761,0.00000693,
 0.00002642,-0.00002550,-0.00001017,-0.00001678,0.00001618,-0.00001497,
 0.00000512,0.00001203,0.00002859,-0.00000605,-0.00002325,0.00000970,-0
 .00000958,0.00000454,-0.00000442,0.00000936,0.00001582,-0.00001348,-0.
 00000443,0.00004327,0.00001314,-0.00001261,-0.00002332,-0.00000420,0.0
 0000333,-0.00003029,-0.00001038,0.00000591,0.00000246,0.00000669,0.000
 01103,0.00002460,-0.00000357,0.00000515,-0.00001369,0.00000083,-0.0000
 0032,-0.00001371,0.00000062,-0.00000822,-0.00000095,0.00000167,0.00000
 164,-0.00000128,-0.00000049,-0.00000006,0.00001249,-0.00000290,0.00000
 026,0.00000076,-0.00000119,-0.00000011,0.00000137,-0.00000106,-0.00000
 262,-0.00000128,-0.00000143,-0.00000281,-0.00000105,0.00000044,0.00000
 145,-0.00000109,-0.00000199,-0.00000069,0.00000635,-0.00000386,0.00000
 205,-0.00000716,0.00000405,0.00000043,-0.00001054,-0.00000007,0.000004
 87,-0.00000521,0.00000245,0.00000071,0.00001769,-0.00000419,0.00000338
 ,-0.00001194,0.00000485,0.00000399,0.00000529,0.00000460,-0.00000084,0
 .00000001,0.00000068,-0.00000072,0.00001295,-0.00000518,-0.00000341,-0
 .00000048,-0.00000109,-0.00000262,0.00000250,-0.00000036,-0.00000179,0
 .00000351,0.00000146,-0.00000346,0.00000288,0.00000114,0.00000182,-0.0
 0002191,-0.00005099,-0.00003228,0.00050862,-0.00054529,-0.00029918,0.0
 0121573,-0.00016973,0.00391828,0.00177839,0.00343265,-0.00051191,-0.01
 032213,0.00633437,0.00127801,-0.00053680,0.00036154,-0.00000878,-0.008
 21186,0.00253328,0.00433892,-0.00046984,0.00008304,0.00025204,-0.29733
 588,0.08913903,0.05959833,0.00019489,-0.00134717,-0.00095593,0.0001673
 1,-0.00114941,-0.00121682,0.31310375,-0.00004064,0.00003335,0.00004728
 ,-0.00044701,-0.00049529,-0.00030214,0.00009402,0.00002293,0.00000095,
 0.00000949,-0.00000645,0.00001835,0.00001872,-0.00000792,-0.00003870,0
 .00008194,-0.00001255,0.00002951,0.00000063,-0.00000625,-0.00001862,-0
 .00003144,-0.00000028,-0.00004520,-0.00000540,0.00002968,-0.00000161,0
 .00000529,-0.00000239,0.00000460,0.00000561,-0.00000376,-0.00000897,0.
 00000747,0.00003048,0.00002059,-0.00000770,0.00001137,-0.00005498,-0.0
 0000051,0.00000162,-0.00000016,0.00001837,-0.00000381,-0.00000808,-0.0
 0000714,0.00000487,0.00000573,0.00000209,-0.00000183,-0.00000297,-0.00
 000134,0.00000063,0.00000101,-0.00000399,-0.00000251,0.00000579,0.0000
 0416,0.00000181,-0.00000215,-0.00000727,0.00000178,0.00000462,0.000009
 46,-0.00000058,-0.00000393,0.00000500,-0.00000124,-0.00000423,-0.00000
 194,0.00000004,0.00000152,-0.00001139,0.00000436,-0.00000033,0.0000134
 6,-0.00000392,-0.00000055,0.00000818,-0.00000103,-0.00000210,0.0000039
 8,-0.00000118,0.00000330,-0.00000621,-0.00000640,0.00000179,0.00000658
 ,0.00000345,0.00000060,-0.00000730,0.00000821,-0.00001678,0.00000053,0
 .00000968,0.00000235,0.00000420,0.00000091,-0.00000191,-0.00000019,-0.
 00000024,-0.00000265,0.00000242,0.00000010,-0.00000212,-0.00000843,-0.
 00000180,0.00000333,0.00000410,0.00000034,-0.00000109,0.00000615,0.000
 00152,-0.00000143,-0.00000015,-0.00000115,-0.00000211,-0.00000687,0.00
 000132,-0.00000057,0.00000390,-0.00000064,-0.00000049,0.00000348,-0.00
 000050,0.00000181,0.00000013,-0.00000055,-0.00000070,0.00000051,0.0000
 0014,-0.00000006,-0.00000430,-0.00000018,0.00000147,-0.00000041,0.0000
 0048,0.00000017,-0.00000033,0.00000041,0.00000102,0.00000047,0.0000007
 3,0.00000117,0.00000048,-0.00000017,-0.00000057,0.00000049,0.00000078,
 0.00000018,-0.00000197,0.00000125,-0.00000056,-0.00000104,-0.00000087,
 0.00000047,0.00000415,-0.00000076,0.00000395,0.00000221,-0.00000076,-0
 .00000084,-0.00000776,-0.00000254,0.00000106,0.00000091,0.00000128,0.0
 0000082,0.00000313,0.00000179,0.00000324,-0.00000003,0.,0.00000046,-0.
 00000175,0.00000078,0.00000139,0.00000004,0.00000014,0.00000048,-0.000
 00068,0.00000009,0.00000054,-0.00000103,-0.00000005,0.00000083,-0.0000
 0086,0.00000003,-0.00000047,-0.00000394,-0.00003224,-0.00002011,-0.000
 38901,-0.00080578,0.00027266,0.00023819,0.00276382,0.00494989,0.002883
 96,0.00084568,0.00593823,-0.01257059,0.00793442,0.00265019,-0.00061873
 ,0.00022965,0.00015245,0.02133182,-0.00295021,-0.00628595,0.00111264,-
 0.00028154,-0.00029379,0.08926688,-0.07823757,-0.00891296,-0.00096522,
 -0.00140992,-0.00219395,-0.00155827,-0.00138732,-0.00197236,-0.0984219
 1,0.07372225,-0.00005000,0.00005458,-0.00000166,-0.00039830,-0.0003238
 4,-0.00033394,0.00008427,0.00002204,-0.00003199,0.00000369,0.00000561,
 0.00002074,-0.00001785,-0.00001378,0.00002380,0.00006437,0.00000239,-0
 .00002794,-0.00000496,-0.00002462,0.00002837,0.00002572,-0.00002314,0.
 00002057,0.00002134,0.00000516,0.00001921,-0.00000684,-0.00000513,0.00
 000030,-0.00000854,0.00000951,0.00000393,-0.00002334,0.00000077,-0.000
 01156,-0.00001112,-0.00000302,-0.00000404,0.00000247,0.00000073,-0.000
 00277,0.00001027,-0.00000134,-0.00000488,0.00000899,-0.00000699,-0.000
 00122,0.00000168,-0.00000171,-0.00000243,-0.00000092,0.00000086,0.0000
 0058,-0.00000244,-0.00000133,0.00000354,0.00000267,0.00000055,-0.00000
 150,-0.00000647,0.00000138,0.00000402,0.00000909,-0.00000179,-0.000001
 37,0.00000289,-0.00000122,-0.00000272,-0.00000091,0.00000032,0.0000004
 0,-0.00000450,0.00000902,0.00000433,0.00000121,-0.00000567,-0.00000260
 ,0.00000811,-0.00000627,-0.00000261,0.00000120,0.00000170,0.00000075,-
 0.00000403,-0.00000250,-0.00000279,0.00000411,0.00000128,0.00000127,-0
 .00000744,-0.00000730,0.00000328,-0.00000171,0.00000289,0.00000587,0.0
 0000448,-0.00000158,0.,-0.00000024,0.00000152,-0.00000082,0.00000452,0
 .00000230,-0.00000278,-0.00000926,-0.00000222,0.00000265,0.00000523,0.
 00000073,-0.00000078,0.00000625,0.00000204,-0.00000138,-0.00000007,-0.
 00000118,-0.00000193,-0.00000549,0.00000104,0.00000095,0.00000343,-0.0
 0000046,-0.00000126,0.00000249,-0.00000021,0.00000067,0.00000001,-0.00
 000040,-0.00000057,0.00000018,0.00000021,0.00000009,-0.00000256,0.0000
 0100,-0.00000128,-0.00000013,0.00000016,0.00000011,-0.00000029,0.00000
 033,0.00000098,0.00000045,0.00000059,0.00000094,0.00000037,-0.00000017
 ,-0.00000036,0.,0.00000050,-0.00000003,-0.00000149,0.00000093,-0.00000
 008,0.00000285,0.00000194,0.00000032,-0.00000156,0.00000071,-0.0000000
 9,0.00000049,-0.00000051,-0.00000015,-0.00000316,0.00000257,0.00000130
 ,0.00000261,0.00000116,0.00000109,-0.00000309,0.00000142,0.00000514,0.
 00000080,-0.00000070,0.00000036,-0.00000263,0.00000197,0.00000086,0.00
 000005,0.00000005,0.00000058,-0.00000055,0.00000020,0.00000051,-0.0000
 0086,-0.00000029,0.00000095,-0.00000062,-0.00000013,-0.00000012,-0.000
 00574,-0.00003161,-0.00002715,-0.00023464,0.00026060,-0.00097092,0.003
 29896,0.00540000,-0.00100447,0.00010226,0.00557078,0.00064108,0.023418
 97,-0.00935957,-0.00058561,0.00114993,-0.00055194,-0.00015273,-0.01793
 335,0.00570238,0.00794343,-0.00090876,0.00034655,0.00024295,0.05973293
 ,-0.00898482,-0.06494543,-0.00144158,-0.00190641,-0.00071958,-0.000751
 28,-0.00222152,-0.00076097,-0.06620221,0.00607418,0.06058465,-0.012824
 03,0.00294866,-0.00717976,-0.00128348,-0.00156080,-0.00011824,0.000127
 57,-0.00088405,-0.00107596,0.00004692,-0.00054373,0.00045900,-0.000209
 05,-0.00149721,0.00072404,-0.00002467,0.00006267,0.00001853,0.00000944
 ,-0.00006611,-0.00004664,-0.00010945,-0.00016989,0.00001571,-0.0000052
 7,-0.00015782,0.00009669,-0.00001416,-0.00005319,0.00001019,0.00000598
 ,0.00005265,0.00002548,0.00004893,0.00004034,-0.00000469,-0.00055238,-
 0.00023323,0.00007155,0.00020746,-0.00006863,-0.00000123,0.00004472,0.
 00000510,0.00000079,0.00032294,-0.00001101,-0.00001697,-0.00003258,0.0
 0004390,0.00005427,0.00002589,-0.00002157,-0.00000823,0.00003678,-0.00
 001911,-0.00006208,-0.00005042,0.00003799,0.00002701,0.00012686,-0.000
 04797,-0.00009447,-0.00011651,0.00015870,0.00008306,-0.00007034,0.0000
 6462,0.00003822,0.00001286,-0.00000802,0.00001872,0.00006931,-0.000460
 15,-0.00026860,0.00013164,0.00023613,0.00019476,-0.00034302,0.00028825
 ,0.00010826,-0.00013922,-0.00023957,-0.00001061,0.00006443,0.00017121,
 0.00043979,-0.00014592,-0.00010081,-0.00023085,-0.00021980,-0.00059721
 ,0.00066716,0.00499153,0.00146404,-0.00240358,-0.00006834,0.00024863,-
 0.00019216,-0.00014752,-0.00067209,-0.00091401,-0.00246484,-0.00038977
 ,-0.00021330,0.00064365,-0.00001970,0.00006692,-0.00040266,-0.00002353
 ,-0.00007392,-0.00029195,-0.00008339,-0.00000975,0.00000814,0.00005950
 ,0.00009484,0.00019330,-0.00004659,0.00001901,-0.00011188,0.00001870,0
 .00001283,-0.00010471,0.00001248,-0.00005570,-0.00001680,0.00002011,0.
 00002830,0.00002155,-0.00001515,-0.00000725,-0.00006783,-0.00000546,-0
 .00002991,-0.00000144,0.00000448,-0.00000606,0.00000905,-0.00000992,-0
 .00002043,-0.00001073,-0.00001394,-0.00002059,-0.00001595,0.00001008,0
 .00001096,0.00000652,-0.00001653,0.00000329,0.00005339,-0.00003393,0.0
 0000833,0.00011263,-0.00007240,0.00022945,-0.00020672,-0.00000289,-0.0
 0009467,-0.00001914,0.00003978,-0.00001149,0.00021006,-0.00021798,-0.0
 0012729,-0.00017445,-0.00018758,-0.00035056,-0.00085471,-0.00052294,-0
 .00171073,-0.00032598,0.00027968,0.00003242,0.00012533,-0.00014262,-0.
 00001308,-0.00000403,-0.00000528,-0.00002376,0.00001917,-0.00001513,-0
 .00001300,0.00003707,0.00001197,-0.00003212,0.00001680,0.00000424,0.00
 001016,-0.00194106,0.00040619,-0.00237213,0.00030808,0.00051690,0.0001
 6507,-0.00058810,0.00012913,-0.00147316,0.00012943,-0.00007351,0.00021
 662,-0.00010900,-0.00051375,0.00047678,-0.00047413,-0.00028283,0.00074
 055,0.00000603,-0.00018537,0.00008543,-0.00003250,-0.00005661,0.000095
 36,0.00004618,0.00018788,-0.00003141,0.00005307,-0.00002585,-0.0000409
 1,-0.00000342,-0.00003875,0.00000805,-0.00005734,-0.00002252,0.0000696
 3,0.01636285,0.00500254,-0.02953222,0.03390234,-0.00242597,-0.00678608
 ,0.00219007,-0.00119343,-0.00160037,-0.00123904,-0.00001696,-0.0007297
 1,0.00084241,-0.00068735,-0.00354852,0.00027121,-0.00037164,-0.0001822
 3,0.00005554,-0.00002308,0.00010282,-0.00001361,0.00012694,0.00009050,
 -0.00001422,0.00002138,-0.00015191,-0.00003887,-0.00001553,-0.00003987
 ,0.00005653,-0.00001099,0.00002405,0.00002594,-0.00002948,-0.00002390,
 -0.00000621,0.00008880,-0.00025350,0.00032638,-0.00022580,0.00024030,0
 .00000351,-0.00010165,-0.00004536,-0.00007742,-0.00000121,-0.00008941,
 -0.00004631,0.00003697,-0.00002526,-0.00007357,-0.00002278,0.00001083,
 0.00001861,-0.00017340,-0.00014359,0.00028433,0.00014408,0.00014667,-0
 .00009917,-0.00015625,-0.00000418,0.00012512,0.00021367,-0.00000929,-0
 .00017665,0.00015016,-0.00000555,-0.00021773,-0.00007325,-0.00006704,0
 .00001597,-0.00022416,0.00070056,0.00043603,-0.00003169,-0.00032042,-0
 .00032051,0.00069157,-0.00042748,-0.00026436,0.00013680,0.00021359,-0.
 00001222,-0.00027969,-0.00054556,0.00019326,0.00023858,0.00029053,-0.0
 0007195,-0.00070150,-0.00029156,0.00067580,-0.00105490,0.00142696,0.00
 096399,0.00033851,0.00023957,-0.00020670,-0.00019693,-0.00054968,-0.00
 040527,-0.00080456,0.00137182,-0.00012174,0.00002336,-0.00000897,0.000
 26961,-0.00002504,0.00012147,-0.00023728,-0.00000301,0.00003526,-0.000
 07815,0.00001313,-0.00003861,0.00001867,-0.00005637,-0.00001440,0.0000
 4312,0.00003840,0.00001508,-0.00003748,0.00001489,0.00001947,-0.000016
 16,0.00001024,-0.00001910,-0.00002499,0.00002183,-0.00000392,0.0000027
 3,-0.00004136,-0.00002799,0.00009242,-0.00000920,0.00002136,0.00000202
 ,0.00000152,0.00000246,0.00003558,0.00000360,0.00001012,0.00001694,0.0
 0003861,-0.00000789,-0.00001150,-0.00000051,0.00002574,-0.00001375,-0.
 00005785,0.00001978,-0.00000551,0.00060994,0.00023912,-0.00017734,0.00
 015462,-0.00008303,0.00005355,0.00006298,-0.00002952,-0.00004449,-0.00
 045507,0.00039146,0.00023743,0.00040682,-0.00025933,-0.00016253,0.0002
 8001,-0.00045819,-0.00041406,-0.00012251,0.00013642,0.00004069,-0.0001
 0910,0.00004728,0.00012347,0.00000051,0.00000324,0.00000296,-0.0000265
 6,-0.00000791,0.00000776,0.00000733,-0.00004192,0.00002202,-0.00001156
 ,-0.00001435,0.00000075,-0.00175864,0.00081184,-0.00309802,0.00050273,
 0.00037371,-0.00014096,-0.00043762,0.00013755,0.00005099,-0.00000954,-
 0.00004111,0.00013642,0.00002039,-0.00000810,0.00003887,-0.00031813,-0
 .00030524,0.00005955,0.00002688,-0.00003253,-0.00008689,0.00003474,0.0
 0008466,-0.00003802,-0.00004507,0.00004097,0.00002187,-0.00007592,-0.0
 0000013,-0.00001970,0.00001532,0.00000226,-0.00001190,-0.00000469,0.,-
 0.00000129,0.00291210,0.03937749,-0.00898604,0.02960372,-0.06519875,0.
 00033446,0.00485895,-0.00413951,-0.00094946,-0.00136087,-0.00107505,-0
 .00002927,-0.00101004,0.00040945,0.00065666,-0.00083076,0.00094313,0.0
 0059460,0.00059225,0.00071998,0.00001433,-0.00015399,-0.00020858,-0.00
 034618,-0.00053150,0.00013785,-0.00007293,-0.00003801,-0.00005394,0.00
 002251,0.00002348,0.00004913,0.00005959,0.00018391,0.00014360,0.000062
 01,0.00005457,0.00000404,-0.00001044,-0.00014813,0.00046808,-0.0003489
 1,0.00037327,-0.00041208,-0.00004926,0.00016907,0.00008602,0.00000403,
 -0.00039010,-0.00006069,0.00000251,0.00002141,0.00019779,0.00005514,-0
 .00000677,-0.00005851,0.00035002,0.00021511,-0.00085619,-0.00027327,-0
 .00025519,0.00032135,-0.00001734,0.00006943,-0.00016559,0.00018740,-0.
 00020178,0.00068193,-0.00034421,0.00004800,0.00060286,0.00017990,0.000
 17711,-0.00005815,0.00050850,-0.00208854,-0.00145419,0.00028798,0.0009
 0706,0.00120067,-0.00184468,0.00126024,0.00095557,-0.00024248,-0.00038
 426,-0.00036742,0.00068124,0.00111260,-0.00085511,-0.00051989,-0.00045
 479,0.00037478,0.00178887,0.00104863,-0.00139980,0.00062206,0.00466620
 ,-0.00126375,-0.00068500,-0.00041085,0.00090281,0.00020713,0.00072885,
 0.00014568,-0.00018848,-0.00125186,-0.00092087,-0.00031833,-0.00023318
 ,-0.00118743,0.00042621,0.00003859,0.00093882,0.00024424,0.00005792,0.
 00032357,-0.00005671,0.00005685,-0.00010577,0.00010088,0.00000688,-0.0
 0013656,-0.00007603,-0.00000635,0.00012234,0.00000213,-0.00003486,0.00
 006982,-0.00001803,0.00006348,0.00007454,-0.00006113,-0.00000579,-0.00
 002642,-0.00007463,0.00020732,-0.00052399,0.00002635,-0.00004992,-0.00
 000650,-0.00002260,-0.00000717,-0.00009401,0.00001487,-0.00002202,-0.0
 0003043,-0.00009826,0.00002782,0.00001896,0.00000842,-0.00005991,0.000
 04618,0.00013660,-0.00006010,0.00000569,-0.00136517,-0.00059656,0.0003
 0123,-0.00049098,-0.00021700,0.00033442,-0.00017813,0.00010793,0.00017
 100,0.00100941,-0.00071870,-0.00070899,-0.00030162,0.00025561,0.000208
 51,-0.00101092,-0.00012021,-0.00041946,0.00001948,-0.00002296,0.000013
 46,0.00010691,-0.00017653,-0.00052708,0.00001735,0.00000975,0.00001346
 ,0.00007777,-0.00000193,-0.00001297,-0.00005308,0.00004871,-0.00003990
 ,0.00001835,0.00002025,-0.00000743,-0.00417324,-0.00164511,-0.00430773
 ,-0.00005249,0.00001752,0.00077368,0.00034533,0.00033739,-0.00046868,-
 0.00011079,0.00016469,0.00009036,-0.00006264,-0.00022239,0.00011987,0.
 00040231,0.00014390,-0.00015651,-0.00001262,-0.00014611,0.00014877,-0.
 00006689,-0.00015661,0.00005229,-0.00001853,0.00003243,-0.00002872,0.0
 0008312,-0.00002484,-0.00001778,-0.00004821,-0.00002457,0.00000651,-0.
 00001185,-0.00000179,0.00004397,0.01393204,-0.03363887,0.07513235\\-0.
 00000495,-0.00000824,-0.00000319,0.00001640,-0.00000877,0.00000476,-0.
 00000487,0.00000121,0.00000177,0.00000062,0.00000054,-0.00000318,-0.00
 000021,-0.00000010,-0.00000175,-0.00000288,-0.00000233,-0.00000415,0.0
 0000379,-0.00000123,-0.00000111,-0.00000143,-0.00000260,-0.00000190,0.
 00000110,-0.00000011,-0.00000720,0.00000277,-0.00000229,-0.00000403,0.
 00000059,-0.00000164,-0.00000337,0.00000097,-0.00000149,-0.00000332,0.
 00000454,0.00000816,-0.00001062,0.00000166,-0.00000156,0.00000265,0.00
 000225,-0.00000060,0.00000275,0.00000417,-0.00000270,-0.00000254,0.000
 00591,0.00000562,0.00000090,-0.00000328,0.00000625,-0.00000066,0.00001
 577,-0.00000842,-0.00000195,-0.00000741,0.00000508,-0.00000087,0.00000
 118,0.00000192,-0.00000052,-0.00000188,0.00000262,0.00000010,-0.000005
 04,0.00000763,0.00000641,-0.00000003,-0.00000323,0.00000162,0.00000240
 ,0.00000246,-0.00000332,0.00000184,0.00000055,0.00000016,0.00000497,-0
 .00000246,-0.00000879,-0.00000116,0.00000203,0.00000901,-0.00000205,0.
 00000059,0.00000277,0.00000041,-0.00000480,0.00000240,0.00000152,-0.00
 000070,-0.00000117,-0.00000271,-0.00000090,-0.00000310,-0.00001596,0.0
 0001320,0.00000326,0.00000329,0.00000356,-0.00000373,-0.00000256,-0.00
 000146,0.00000118,0.00000736,-0.00002955,0.00001222,-0.00000502,0.0000
 1395,-0.00000037,-0.00000216,0.00000684,-0.00000016,-0.00000243,0.0000
 0381,0.00000640,0.00000059,0.00000605,0.00000618,0.00000038,0.00000251
 ,0.00000274,-0.00000153,0.00000114,0.00000232,0.00000040,0.00000414,-0
 .00000067,0.00000130,0.00000333,0.00000255,0.00000036,-0.00000090,-0.0
 0000322,0.00000193,0.00000268,-0.00000300,0.00000033,0.00000345,-0.000
 00001,-0.00000068,0.00000288,-0.00000121,0.00000118,-0.00000015,-0.000
 00149,0.00000047,-0.00000027,-0.00000163,-0.00000067,-0.00000089,0.000
 00005,-0.00000282,-0.00000407,-0.00000057,-0.00000062,-0.00000597,0.00
 000026,-0.00000329,-0.00000099,-0.00000067,-0.00000224,0.00000024,-0.0
 0000137,-0.00000157,-0.00000051,0.00000370,-0.00000209,0.00000267,0.00
 000352,-0.00000349,0.00000279,0.00000335,0.00000593,-0.00000834,-0.000
 00561,-0.00000010,0.00000002,0.00000375,-0.00000026,0.00000281,0.00000
 261,-0.00000200,0.00000657,0.00000350,-0.00000134,0.00000256,0.0000042
 3,0.00000220,0.00000353,0.00000850,-0.00000784,0.00000608,-0.00000193,
 0.00000435,-0.00000618,0.00000027,0.00000711,-0.00000830,-0.00000529,-
 0.00000465,-0.00000245,0.00000102,0.00000045,0.00000045,-0.00000033,-0
 .00000509,-0.00000129,-0.00000100,-0.00000207,-0.00000116,-0.00000081,
 -0.00000132,-0.00000286,-0.00000039,0.00000091,-0.00000249,-0.00000135
 ,0.00000024,-0.00000608,-0.00000295,-0.00000066,-0.00000510,-0.0000026
 5,-0.00000122,0.00000325,0.00000023\\\@


      TO SUSPECT YOUR OWN MORTALITY IS TO KNOW THE BEGINNING OF TERROR.
      TO LEARN IRREFUTABLY THAT YOU ARE MORTAL IS TO KNOW THE END
      OF TERROR.

                                                  -- JESSICA
                                                     CHILDREN OF DUNE
                                                     BY FRANK HERBERT
 Job cpu time:       0 days 10 hours 33 minutes 56.4 seconds.
 File lengths (MBytes):  RWF=   4317 Int=      0 D2E=      0 Chk=     38 Scr=      1
 Normal termination of Gaussian 09 at Fri May 19 05:10:23 2023.
