 Entering Gaussian System, Link 0=g09
 Input=AF52-helio.com
 Output=AF52-helio.log
 Initial command:
 /home/scr/programs/g09/l1.exe "/home/scr/helius/Gau-13651.inp" -scrdir="/home/scr/helius/"
 Entering Link 1 = /home/scr/programs/g09/l1.exe PID=     13653.
  
 Copyright (c) 1988,1990,1992,1993,1995,1998,2003,2009,2013,
            Gaussian, Inc.  All Rights Reserved.
  
 This is part of the Gaussian(R) 09 program.  It is based on
 the Gaussian(R) 03 system (copyright 2003, Gaussian, Inc.),
 the Gaussian(R) 98 system (copyright 1998, Gaussian, Inc.),
 the Gaussian(R) 94 system (copyright 1995, Gaussian, Inc.),
 the Gaussian 92(TM) system (copyright 1992, Gaussian, Inc.),
 the Gaussian 90(TM) system (copyright 1990, Gaussian, Inc.),
 the Gaussian 88(TM) system (copyright 1988, Gaussian, Inc.),
 the Gaussian 86(TM) system (copyright 1986, Carnegie Mellon
 University), and the Gaussian 82(TM) system (copyright 1983,
 Carnegie Mellon University). Gaussian is a federally registered
 trademark of Gaussian, Inc.
  
 This software contains proprietary and confidential information,
 including trade secrets, belonging to Gaussian, Inc.
  
 This software is provided under written license and may be
 used, copied, transmitted, or stored only in accord with that
 written license.
  
 The following legend is applicable only to US Government
 contracts under FAR:
  
                    RESTRICTED RIGHTS LEGEND
  
 Use, reproduction and disclosure by the US Government is
 subject to restrictions as set forth in subparagraphs (a)
 and (c) of the Commercial Computer Software - Restricted
 Rights clause in FAR 52.227-19.
  
 Gaussian, Inc.
 340 Quinnipiac St., Bldg. 40, Wallingford CT 06492
  
  
 ---------------------------------------------------------------
 Warning -- This program may not be used in any manner that
 competes with the business of Gaussian, Inc. or will provide
 assistance to any competitor of Gaussian, Inc.  The licensee
 of this program is prohibited from giving any competitor of
 Gaussian, Inc. access to this program.  By using this program,
 the user acknowledges that Gaussian, Inc. is engaged in the
 business of creating and licensing software in the field of
 computational chemistry and represents and warrants to the
 licensee that it is not a competitor of Gaussian, Inc. and that
 it will not use this program in any manner prohibited above.
 ---------------------------------------------------------------
  

 Cite this work as:
 Gaussian 09, Revision D.01,
 M. J. Frisch, G. W. Trucks, H. B. Schlegel, G. E. Scuseria, 
 M. A. Robb, J. R. Cheeseman, G. Scalmani, V. Barone, B. Mennucci, 
 G. A. Petersson, H. Nakatsuji, M. Caricato, X. Li, H. P. Hratchian, 
 A. F. Izmaylov, J. Bloino, G. Zheng, J. L. Sonnenberg, M. Hada, 
 M. Ehara, K. Toyota, R. Fukuda, J. Hasegawa, M. Ishida, T. Nakajima, 
 Y. Honda, O. Kitao, H. Nakai, T. Vreven, J. A. Montgomery, Jr., 
 J. E. Peralta, F. Ogliaro, M. Bearpark, J. J. Heyd, E. Brothers, 
 K. N. Kudin, V. N. Staroverov, T. Keith, R. Kobayashi, J. Normand, 
 K. Raghavachari, A. Rendell, J. C. Burant, S. S. Iyengar, J. Tomasi, 
 M. Cossi, N. Rega, J. M. Millam, M. Klene, J. E. Knox, J. B. Cross, 
 V. Bakken, C. Adamo, J. Jaramillo, R. Gomperts, R. E. Stratmann, 
 O. Yazyev, A. J. Austin, R. Cammi, C. Pomelli, J. W. Ochterski, 
 R. L. Martin, K. Morokuma, V. G. Zakrzewski, G. A. Voth, 
 P. Salvador, J. J. Dannenberg, S. Dapprich, A. D. Daniels, 
 O. Farkas, J. B. Foresman, J. V. Ortiz, J. Cioslowski, 
 and D. J. Fox, Gaussian, Inc., Wallingford CT, 2013.
 
 ******************************************
 Gaussian 09:  EM64L-G09RevD.01 24-Apr-2013
                17-May-2023 
 ******************************************
 %mem=30000MB
 %nprocshared=8
 Will use up to    8 processors via shared memory.
 ----------------------------------------
 # opt freq=noraman b3lyp/gen pseudo=read
 ----------------------------------------
 1/14=-1,18=20,19=15,26=3,38=1/1,3;
 2/9=110,12=2,17=6,18=5,40=1/2;
 3/5=7,11=2,16=1,17=8,25=1,30=1,71=1,74=-5/1,2,3;
 4//1;
 5/5=2,38=5/2;
 6/7=2,8=2,9=2,10=2,28=1/1;
 7//1,2,3,16;
 1/14=-1,18=20,19=15,26=3/3(2);
 2/9=110/2;
 99//99;
 2/9=110/2;
 3/5=7,6=1,11=2,16=1,17=8,25=1,30=1,71=1,74=-5,82=7/1,2,3;
 4/5=5,16=3,69=1/1;
 5/5=2,38=5/2;
 7//1,2,3,16;
 1/14=-1,18=20,19=15,26=3/3(-5);
 2/9=110/2;
 6/7=2,8=2,9=2,10=2,19=2,28=1/1;
 99/9=1/99;
 --
 af
 --
 Symbolic Z-matrix:
 Charge =  0 Multiplicity = 1
 Au                    1.32501  -0.23011  -0.02201 
 Cl                    3.37554  -1.35584  -0.03132 
 P                    -0.63787   0.89496  -0.01566 
 C                    -2.09956  -0.17635  -0.12835 
 C                    -3.38766   0.37149  -0.08012 
 C                    -1.94983  -1.5576   -0.27669 
 C                    -4.50356  -0.45214  -0.17888 
 H                    -3.53089   1.44238   0.03492 
 C                    -3.06869  -2.3807   -0.3766 
 H                    -0.95255  -1.98786  -0.31359 
 C                    -4.34543  -1.82904  -0.3279 
 H                    -5.49795  -0.01785  -0.13996 
 H                    -2.94008  -3.45274  -0.49124 
 H                    -5.21856  -2.47015  -0.40479 
 C                    -0.87152   1.9007    1.49402 
 C                    -0.85047   1.0775    2.77758 
 H                    -1.81392   2.45112   1.39063 
 H                    -0.06353   2.64022   1.49503 
 H                    -0.97943   1.73229   3.6445 
 H                    -1.657     0.3378    2.792 
 H                     0.10002   0.54634   2.89082 
 C                    -0.80052   2.06609  -1.41358 
 C                     0.34135   3.0734   -1.51082 
 H                    -1.76767   2.57279  -1.31601 
 H                    -0.84917   1.44578  -2.31506 
 H                     0.2108    3.69606  -2.40099 
 H                     0.37354   3.73919  -0.64336 
 H                     1.30937   2.56793  -1.58912 
 

 GradGradGradGradGradGradGradGradGradGradGradGradGradGradGradGradGradGrad
 Berny optimization.
 Initialization pass.
                           ----------------------------
                           !    Initial Parameters    !
                           ! (Angstroms and Degrees)  !
 --------------------------                            --------------------------
 ! Name  Definition              Value          Derivative Info.                !
 --------------------------------------------------------------------------------
 ! R1    R(1,2)                  2.3392         estimate D2E/DX2                !
 ! R2    R(1,3)                  2.2625         estimate D2E/DX2                !
 ! R3    R(3,4)                  1.8158         estimate D2E/DX2                !
 ! R4    R(3,15)                 1.829          estimate D2E/DX2                !
 ! R5    R(3,22)                 1.8309         estimate D2E/DX2                !
 ! R6    R(4,5)                  1.4006         estimate D2E/DX2                !
 ! R7    R(4,6)                  1.3972         estimate D2E/DX2                !
 ! R8    R(5,7)                  1.3904         estimate D2E/DX2                !
 ! R9    R(5,8)                  1.0865         estimate D2E/DX2                !
 ! R10   R(6,9)                  1.3926         estimate D2E/DX2                !
 ! R11   R(6,10)                 1.0868         estimate D2E/DX2                !
 ! R12   R(7,11)                 1.3939         estimate D2E/DX2                !
 ! R13   R(7,12)                 1.0858         estimate D2E/DX2                !
 ! R14   R(9,11)                 1.3917         estimate D2E/DX2                !
 ! R15   R(9,13)                 1.0858         estimate D2E/DX2                !
 ! R16   R(11,14)                1.086          estimate D2E/DX2                !
 ! R17   R(15,16)                1.525          estimate D2E/DX2                !
 ! R18   R(15,17)                1.0963         estimate D2E/DX2                !
 ! R19   R(15,18)                1.0953         estimate D2E/DX2                !
 ! R20   R(16,19)                1.094          estimate D2E/DX2                !
 ! R21   R(16,20)                1.0945         estimate D2E/DX2                !
 ! R22   R(16,21)                1.0947         estimate D2E/DX2                !
 ! R23   R(22,23)                1.5258         estimate D2E/DX2                !
 ! R24   R(22,24)                1.0962         estimate D2E/DX2                !
 ! R25   R(22,25)                1.0954         estimate D2E/DX2                !
 ! R26   R(23,26)                1.0941         estimate D2E/DX2                !
 ! R27   R(23,27)                1.094          estimate D2E/DX2                !
 ! R28   R(23,28)                1.0948         estimate D2E/DX2                !
 ! A1    A(1,3,4)              113.8809         estimate D2E/DX2                !
 ! A2    A(1,3,15)             112.7425         estimate D2E/DX2                !
 ! A3    A(1,3,22)             113.1422         estimate D2E/DX2                !
 ! A4    A(4,3,15)             105.8326         estimate D2E/DX2                !
 ! A5    A(4,3,22)             104.9813         estimate D2E/DX2                !
 ! A6    A(15,3,22)            105.494          estimate D2E/DX2                !
 ! A7    A(3,4,5)              120.4928         estimate D2E/DX2                !
 ! A8    A(3,4,6)              120.2373         estimate D2E/DX2                !
 ! A9    A(5,4,6)              119.2673         estimate D2E/DX2                !
 ! A10   A(4,5,7)              120.2615         estimate D2E/DX2                !
 ! A11   A(4,5,8)              120.6901         estimate D2E/DX2                !
 ! A12   A(7,5,8)              119.0484         estimate D2E/DX2                !
 ! A13   A(4,6,9)              120.385          estimate D2E/DX2                !
 ! A14   A(4,6,10)             119.5599         estimate D2E/DX2                !
 ! A15   A(9,6,10)             120.0551         estimate D2E/DX2                !
 ! A16   A(5,7,11)             120.1097         estimate D2E/DX2                !
 ! A17   A(5,7,12)             119.704          estimate D2E/DX2                !
 ! A18   A(11,7,12)            120.1862         estimate D2E/DX2                !
 ! A19   A(6,9,11)             120.0179         estimate D2E/DX2                !
 ! A20   A(6,9,13)             119.7336         estimate D2E/DX2                !
 ! A21   A(11,9,13)            120.2485         estimate D2E/DX2                !
 ! A22   A(7,11,9)             119.9586         estimate D2E/DX2                !
 ! A23   A(7,11,14)            119.9676         estimate D2E/DX2                !
 ! A24   A(9,11,14)            120.0738         estimate D2E/DX2                !
 ! A25   A(3,15,16)            113.3372         estimate D2E/DX2                !
 ! A26   A(3,15,17)            107.9423         estimate D2E/DX2                !
 ! A27   A(3,15,18)            106.1282         estimate D2E/DX2                !
 ! A28   A(16,15,17)           111.2402         estimate D2E/DX2                !
 ! A29   A(16,15,18)           110.7013         estimate D2E/DX2                !
 ! A30   A(17,15,18)           107.1718         estimate D2E/DX2                !
 ! A31   A(15,16,19)           110.0134         estimate D2E/DX2                !
 ! A32   A(15,16,20)           111.4537         estimate D2E/DX2                !
 ! A33   A(15,16,21)           111.1595         estimate D2E/DX2                !
 ! A34   A(19,16,20)           107.8909         estimate D2E/DX2                !
 ! A35   A(19,16,21)           108.1062         estimate D2E/DX2                !
 ! A36   A(20,16,21)           108.0915         estimate D2E/DX2                !
 ! A37   A(3,22,23)            113.8579         estimate D2E/DX2                !
 ! A38   A(3,22,24)            107.8233         estimate D2E/DX2                !
 ! A39   A(3,22,25)            105.6689         estimate D2E/DX2                !
 ! A40   A(23,22,24)           111.1492         estimate D2E/DX2                !
 ! A41   A(23,22,25)           110.7729         estimate D2E/DX2                !
 ! A42   A(24,22,25)           107.2072         estimate D2E/DX2                !
 ! A43   A(22,23,26)           109.7708         estimate D2E/DX2                !
 ! A44   A(22,23,27)           111.9176         estimate D2E/DX2                !
 ! A45   A(22,23,28)           111.1892         estimate D2E/DX2                !
 ! A46   A(26,23,27)           107.5952         estimate D2E/DX2                !
 ! A47   A(26,23,28)           108.0619         estimate D2E/DX2                !
 ! A48   A(27,23,28)           108.16           estimate D2E/DX2                !
 ! A49   L(2,1,3,10,-1)        181.0396         estimate D2E/DX2                !
 ! A50   L(2,1,3,10,-2)        180.1996         estimate D2E/DX2                !
 ! D1    D(1,3,4,5)            177.3572         estimate D2E/DX2                !
 ! D2    D(1,3,4,6)             -3.2304         estimate D2E/DX2                !
 ! D3    D(15,3,4,5)            52.954          estimate D2E/DX2                !
 ! D4    D(15,3,4,6)          -127.6336         estimate D2E/DX2                !
 ! D5    D(22,3,4,5)           -58.3508         estimate D2E/DX2                !
 ! D6    D(22,3,4,6)           121.0616         estimate D2E/DX2                !
 ! D7    D(1,3,15,16)          -59.3896         estimate D2E/DX2                !
 ! D8    D(1,3,15,17)          176.9389         estimate D2E/DX2                !
 ! D9    D(1,3,15,18)           62.3139         estimate D2E/DX2                !
 ! D10   D(4,3,15,16)           65.7206         estimate D2E/DX2                !
 ! D11   D(4,3,15,17)          -57.9509         estimate D2E/DX2                !
 ! D12   D(4,3,15,18)         -172.5759         estimate D2E/DX2                !
 ! D13   D(22,3,15,16)         176.6639         estimate D2E/DX2                !
 ! D14   D(22,3,15,17)          52.9924         estimate D2E/DX2                !
 ! D15   D(22,3,15,18)         -61.6326         estimate D2E/DX2                !
 ! D16   D(1,3,22,23)          -55.1847         estimate D2E/DX2                !
 ! D17   D(1,3,22,24)         -179.005          estimate D2E/DX2                !
 ! D18   D(1,3,22,25)           66.6065         estimate D2E/DX2                !
 ! D19   D(4,3,22,23)         -179.9439         estimate D2E/DX2                !
 ! D20   D(4,3,22,24)           56.2357         estimate D2E/DX2                !
 ! D21   D(4,3,22,25)          -58.1528         estimate D2E/DX2                !
 ! D22   D(15,3,22,23)          68.5093         estimate D2E/DX2                !
 ! D23   D(15,3,22,24)         -55.311          estimate D2E/DX2                !
 ! D24   D(15,3,22,25)        -169.6995         estimate D2E/DX2                !
 ! D25   D(3,4,5,7)            179.4228         estimate D2E/DX2                !
 ! D26   D(3,4,5,8)             -0.5977         estimate D2E/DX2                !
 ! D27   D(6,4,5,7)              0.0048         estimate D2E/DX2                !
 ! D28   D(6,4,5,8)            179.9843         estimate D2E/DX2                !
 ! D29   D(3,4,6,9)           -179.3682         estimate D2E/DX2                !
 ! D30   D(3,4,6,10)             0.6473         estimate D2E/DX2                !
 ! D31   D(5,4,6,9)              0.0514         estimate D2E/DX2                !
 ! D32   D(5,4,6,10)          -179.9331         estimate D2E/DX2                !
 ! D33   D(4,5,7,11)            -0.0627         estimate D2E/DX2                !
 ! D34   D(4,5,7,12)           179.9728         estimate D2E/DX2                !
 ! D35   D(8,5,7,11)           179.9575         estimate D2E/DX2                !
 ! D36   D(8,5,7,12)            -0.007          estimate D2E/DX2                !
 ! D37   D(4,6,9,11)            -0.0496         estimate D2E/DX2                !
 ! D38   D(4,6,9,13)          -179.977          estimate D2E/DX2                !
 ! D39   D(10,6,9,11)          179.9348         estimate D2E/DX2                !
 ! D40   D(10,6,9,13)            0.0075         estimate D2E/DX2                !
 ! D41   D(5,7,11,9)             0.0647         estimate D2E/DX2                !
 ! D42   D(5,7,11,14)          179.9989         estimate D2E/DX2                !
 ! D43   D(12,7,11,9)         -179.971          estimate D2E/DX2                !
 ! D44   D(12,7,11,14)          -0.0368         estimate D2E/DX2                !
 ! D45   D(6,9,11,7)            -0.0086         estimate D2E/DX2                !
 ! D46   D(6,9,11,14)         -179.9427         estimate D2E/DX2                !
 ! D47   D(13,9,11,7)          179.9184         estimate D2E/DX2                !
 ! D48   D(13,9,11,14)          -0.0157         estimate D2E/DX2                !
 ! D49   D(3,15,16,19)         179.155          estimate D2E/DX2                !
 ! D50   D(3,15,16,20)         -61.2133         estimate D2E/DX2                !
 ! D51   D(3,15,16,21)          59.4426         estimate D2E/DX2                !
 ! D52   D(17,15,16,19)        -58.9981         estimate D2E/DX2                !
 ! D53   D(17,15,16,20)         60.6337         estimate D2E/DX2                !
 ! D54   D(17,15,16,21)       -178.7104         estimate D2E/DX2                !
 ! D55   D(18,15,16,19)         60.047          estimate D2E/DX2                !
 ! D56   D(18,15,16,20)        179.6787         estimate D2E/DX2                !
 ! D57   D(18,15,16,21)        -59.6654         estimate D2E/DX2                !
 ! D58   D(3,22,23,26)         176.4358         estimate D2E/DX2                !
 ! D59   D(3,22,23,27)         -64.1659         estimate D2E/DX2                !
 ! D60   D(3,22,23,28)          56.9178         estimate D2E/DX2                !
 ! D61   D(24,22,23,26)        -61.5626         estimate D2E/DX2                !
 ! D62   D(24,22,23,27)         57.8357         estimate D2E/DX2                !
 ! D63   D(24,22,23,28)        178.9194         estimate D2E/DX2                !
 ! D64   D(25,22,23,26)         57.5148         estimate D2E/DX2                !
 ! D65   D(25,22,23,27)        176.913          estimate D2E/DX2                !
 ! D66   D(25,22,23,28)        -62.0032         estimate D2E/DX2                !
 --------------------------------------------------------------------------------
 Trust Radius=3.00D-01 FncErr=1.00D-07 GrdErr=1.00D-06
 Number of steps in this run=    154 maximum allowed number of steps=    168.
 GradGradGradGradGradGradGradGradGradGradGradGradGradGradGradGradGradGrad

                          Input orientation:                          
 ---------------------------------------------------------------------
 Center     Atomic      Atomic             Coordinates (Angstroms)
 Number     Number       Type             X           Y           Z
 ---------------------------------------------------------------------
      1         79           0        1.325014   -0.230108   -0.022006
      2         17           0        3.375542   -1.355839   -0.031317
      3         15           0       -0.637869    0.894964   -0.015662
      4          6           0       -2.099558   -0.176353   -0.128351
      5          6           0       -3.387659    0.371486   -0.080120
      6          6           0       -1.949825   -1.557595   -0.276692
      7          6           0       -4.503556   -0.452141   -0.178876
      8          1           0       -3.530885    1.442383    0.034915
      9          6           0       -3.068695   -2.380703   -0.376602
     10          1           0       -0.952553   -1.987864   -0.313587
     11          6           0       -4.345425   -1.829038   -0.327900
     12          1           0       -5.497948   -0.017850   -0.139961
     13          1           0       -2.940075   -3.452737   -0.491236
     14          1           0       -5.218560   -2.470153   -0.404789
     15          6           0       -0.871517    1.900700    1.494022
     16          6           0       -0.850472    1.077499    2.777584
     17          1           0       -1.813919    2.451121    1.390626
     18          1           0       -0.063529    2.640219    1.495034
     19          1           0       -0.979432    1.732294    3.644501
     20          1           0       -1.656998    0.337797    2.792002
     21          1           0        0.100017    0.546336    2.890824
     22          6           0       -0.800516    2.066091   -1.413577
     23          6           0        0.341352    3.073397   -1.510816
     24          1           0       -1.767671    2.572787   -1.316006
     25          1           0       -0.849171    1.445776   -2.315059
     26          1           0        0.210803    3.696055   -2.400993
     27          1           0        0.373538    3.739186   -0.643357
     28          1           0        1.309367    2.567926   -1.589115
 ---------------------------------------------------------------------
                    Distance matrix (angstroms):
                    1          2          3          4          5
     1  Au   0.000000
     2  Cl   2.339235   0.000000
     3  P    2.262463   4.601503   0.000000
     4  C    3.426644   5.601546   1.815752   0.000000
     5  C    4.751271   6.980467   2.799916   1.400592   0.000000
     6  C    3.542832   5.334833   2.793638   1.397231   2.413993
     7  C    5.834907   7.932126   4.096934   2.420293   1.390446
     8  H    5.136168   7.452058   2.944786   2.166947   1.086539
     9  C    4.904638   6.534352   4.095020   2.420747   2.786429
    10  H    2.891719   4.383097   2.915216   2.152093   3.398644
    11  C    5.899494   7.741138   4.611253   2.795551   2.412678
    12  H    6.827282   8.974455   4.946620   3.402104   2.146738
    13  H    5.366237   6.670497   4.942553   3.401889   3.872212
    14  H    6.926954   8.674086   5.697207   3.881509   3.395957
    15  C    3.415177   5.564999   1.829000   2.907633   3.338771
    16  C    3.778926   5.627633   2.807266   3.402472   3.886161
    17  H    4.363189   6.591310   2.404655   3.048360   2.994100
    18  H    3.531039   5.488664   2.378652   3.835866   4.321817
    19  H    4.754447   6.481821   3.770223   4.374017   4.639413
    20  H    4.139270   6.013817   3.038427   2.998111   3.353417
    21  H    3.253930   4.783957   3.018887   3.804711   4.584863
    22  C    3.424453   5.573124   1.830890   2.892727   3.367952
    23  C    3.754636   5.568964   2.817788   4.293032   4.822109
    24  H    4.369823   6.598270   2.404670   3.013046   2.999584
    25  H    3.576837   5.559921   2.373872   2.996074   3.548658
    26  H    4.723960   6.415027   3.775733   5.049576   5.421083
    27  H    4.128762   5.945242   3.083268   4.659708   5.079886
    28  H    3.207034   4.700186   3.011027   4.613639   5.400321
                    6          7          8          9         10
     6  C    0.000000
     7  C    2.784446   0.000000
     8  H    3.405395   2.140331   0.000000
     9  C    1.392609   2.411902   3.872848   0.000000
    10  H    1.086759   3.871203   4.305327   2.153219   0.000000
    11  C    2.411473   1.393936   3.390768   1.391670   3.396618
    12  H    3.870231   1.085789   2.456054   3.397108   4.956987
    13  H    2.148997   3.397884   4.958638   1.085790   2.475410
    14  H    3.396145   2.152821   4.283634   2.151910   4.294151
    15  C    4.032119   4.639629   3.067782   5.163065   4.288933
    16  C    4.181017   4.942214   3.852270   5.179630   4.354562
    17  H    4.343757   4.257513   2.409041   5.295666   4.832275
    18  H    4.931406   5.663789   3.948331   6.143590   5.047834
    19  H    5.209682   5.639984   4.429794   6.119725   5.432012
    20  H    3.618721   4.189631   3.511850   4.407174   3.943301
    21  H    4.319900   5.622535   4.705589   5.411503   4.218806
    22  C    3.967936   4.645265   3.153103   5.098424   4.203290
    23  C    5.312122   6.138128   4.477020   6.531621   5.359469
    24  H    4.263028   4.234185   2.492333   5.206938   4.740126
    25  H    3.792969   4.638954   3.565667   4.829684   3.975734
    26  H    6.064801   6.661120   5.001291   7.195850   6.165841
    27  H    5.795546   6.447403   4.580379   7.026604   5.887815
    28  H    5.418921   6.700720   5.228036   6.717629   5.243899
                   11         12         13         14         15
    11  C    0.000000
    12  H    2.155002   0.000000
    13  H    2.153622   4.297041   0.000000
    14  H    1.085958   2.482334   2.482829   0.000000
    15  C    5.412798   5.268263   6.072847   6.450320   0.000000
    16  C    5.505151   5.595614   5.964450   6.464791   1.525003
    17  H    5.261332   4.691544   6.298029   6.247722   1.096255
    18  H    6.452285   6.266694   7.024521   7.503304   1.095324
    19  H    6.308166   6.148345   6.916140   7.213010   2.159761
    20  H    4.653665   4.845182   5.176300   5.548764   2.178164
    21  H    5.980346   6.390710   6.055830   6.946044   2.174681
    22  C    5.377463   5.294410   5.990483   6.412041   2.913164
    23  C    6.884696   6.747776   7.375482   7.928863   3.446059
    24  H    5.195886   4.691423   6.193684   6.178203   3.025070
    25  H    5.186232   5.337076   5.629710   6.170510   3.836216
    26  H    7.455440   7.176015   8.042415   8.454876   4.423331
    27  H    7.305699   6.988782   7.920033   8.359687   3.081977
    28  H    7.273282   7.424677   7.450603   8.330588   3.834994
                   16         17         18         19         20
    16  C    0.000000
    17  H    2.176860   0.000000
    18  H    2.169403   1.763668   0.000000
    19  H    1.094044   2.508592   2.506674   0.000000
    20  H    1.094464   2.540594   3.085841   1.769314   0.000000
    21  H    1.094709   3.089005   2.521770   1.771930   1.772105
    22  C    4.306465   3.006458   3.054962   5.072237   4.626819
    23  C    4.877953   3.667531   3.063773   5.488198   5.476418
    24  H    4.453607   2.709760   3.287947   5.092581   4.677944
    25  H    5.105942   3.958985   4.069488   5.967865   5.287937
    26  H    5.899220   4.475012   4.045871   6.466917   6.460168
    27  H    4.503956   3.252870   2.443660   4.923806   5.243493
    28  H    5.094540   4.318265   3.376691   5.773008   5.741688
                   21         22         23         24         25
    21  H    0.000000
    22  C    4.652793   0.000000
    23  C    5.081212   1.525773   0.000000
    24  H    5.029133   1.096198   2.176359   0.000000
    25  H    5.367604   1.095367   2.171014   1.764059   0.000000
    26  H    6.159248   2.157438   1.094149   2.520573   2.488912
    27  H    4.770696   2.184236   1.093982   2.529371   3.090200
    28  H    5.061542   2.175835   1.094845   3.089138   2.538799
                   26         27         28
    26  H    0.000000
    27  H    1.765680   0.000000
    28  H    1.771627   1.772592   0.000000
 Stoichiometry    C10H15AuClP
 Framework group  C1[X(C10H15AuClP)]
 Deg. of freedom    78
 Full point group                 C1      NOp   1
 Largest Abelian subgroup         C1      NOp   1
 Largest concise Abelian subgroup C1      NOp   1
                         Standard orientation:                         
 ---------------------------------------------------------------------
 Center     Atomic      Atomic             Coordinates (Angstroms)
 Number     Number       Type             X           Y           Z
 ---------------------------------------------------------------------
      1         79           0        1.325014   -0.230108   -0.022006
      2         17           0        3.375542   -1.355839   -0.031317
      3         15           0       -0.637869    0.894964   -0.015662
      4          6           0       -2.099558   -0.176353   -0.128351
      5          6           0       -3.387659    0.371486   -0.080120
      6          6           0       -1.949825   -1.557595   -0.276692
      7          6           0       -4.503556   -0.452141   -0.178876
      8          1           0       -3.530885    1.442383    0.034915
      9          6           0       -3.068695   -2.380703   -0.376602
     10          1           0       -0.952553   -1.987864   -0.313587
     11          6           0       -4.345425   -1.829038   -0.327900
     12          1           0       -5.497948   -0.017850   -0.139961
     13          1           0       -2.940075   -3.452737   -0.491236
     14          1           0       -5.218560   -2.470153   -0.404789
     15          6           0       -0.871517    1.900700    1.494022
     16          6           0       -0.850472    1.077499    2.777584
     17          1           0       -1.813919    2.451121    1.390626
     18          1           0       -0.063529    2.640219    1.495034
     19          1           0       -0.979432    1.732294    3.644501
     20          1           0       -1.656998    0.337797    2.792002
     21          1           0        0.100017    0.546336    2.890824
     22          6           0       -0.800516    2.066091   -1.413577
     23          6           0        0.341352    3.073397   -1.510816
     24          1           0       -1.767671    2.572787   -1.316006
     25          1           0       -0.849171    1.445776   -2.315059
     26          1           0        0.210803    3.696055   -2.400993
     27          1           0        0.373538    3.739186   -0.643357
     28          1           0        1.309367    2.567926   -1.589115
 ---------------------------------------------------------------------
 Rotational constants (GHZ):      0.6556260      0.2649971      0.2269773
 General basis read from cards:  (5D, 7F)
 ======================================================================================================
                                       Pseudopotential Parameters
 ======================================================================================================
  Center     Atomic      Valence      Angular      Power
  Number     Number     Electrons     Momentum     of R      Exponent        Coefficient   SO-Coeffient
 ======================================================================================================
    1         79           19
                                      G and up 
                                                     1      622.6287956      -60.00000000    0.00000000
                                                     2      136.2843607     -555.52923120    0.00000000
                                                     2       33.1549781     -168.00197850    0.00000000
                                                     2        9.9894895      -63.03998750    0.00000000
                                                     2        3.0481312       -4.25166810    0.00000000
                                      S - G
                                                     0      194.7374304        3.00000000    0.00000000
                                                     1      351.5327447       38.60208800    0.00000000
                                                     2      122.3270402      864.83707270    0.00000000
                                                     2       32.0914617      374.99355200    0.00000000
                                                     2        5.2451812      289.79101000    0.00000000
                                                     2        4.4916223     -152.45327730    0.00000000
                                      P - G
                                                     0      420.6158801        2.00000000    0.00000000
                                                     1      109.4417815       73.88856250    0.00000000
                                                     2       34.1714280      326.67298720    0.00000000
                                                     2        5.9879750      126.58145910    0.00000000
                                      D - G
                                                     0      219.2666158        3.00000000    0.00000000
                                                     1      122.7297786       55.67931490    0.00000000
                                                     2       63.1063369      449.19873350    0.00000000
                                                     2       18.3684520      215.02690910    0.00000000
                                                     2        4.4972844       64.08409950    0.00000000
                                      F - G
                                                     0      108.5506037        4.00000000    0.00000000
                                                     1       56.4795527       51.80653350    0.00000000
                                                     2       29.2069159      231.21831130    0.00000000
                                                     2        9.5440543      119.00473860    0.00000000
                                                     2        2.8965118       15.34241880    0.00000000
    2         17
                                   No pseudopotential on this center.
    3         15
                                   No pseudopotential on this center.
    4          6
                                   No pseudopotential on this center.
    5          6
                                   No pseudopotential on this center.
    6          6
                                   No pseudopotential on this center.
    7          6
                                   No pseudopotential on this center.
    8          1
                                   No pseudopotential on this center.
    9          6
                                   No pseudopotential on this center.
   10          1
                                   No pseudopotential on this center.
   11          6
                                   No pseudopotential on this center.
   12          1
                                   No pseudopotential on this center.
   13          1
                                   No pseudopotential on this center.
   14          1
                                   No pseudopotential on this center.
   15          6
                                   No pseudopotential on this center.
   16          6
                                   No pseudopotential on this center.
   17          1
                                   No pseudopotential on this center.
   18          1
                                   No pseudopotential on this center.
   19          1
                                   No pseudopotential on this center.
   20          1
                                   No pseudopotential on this center.
   21          1
                                   No pseudopotential on this center.
   22          6
                                   No pseudopotential on this center.
   23          6
                                   No pseudopotential on this center.
   24          1
                                   No pseudopotential on this center.
   25          1
                                   No pseudopotential on this center.
   26          1
                                   No pseudopotential on this center.
   27          1
                                   No pseudopotential on this center.
   28          1
                                   No pseudopotential on this center.
 ======================================================================================================
 There are   266 symmetry adapted cartesian basis functions of A   symmetry.
 There are   248 symmetry adapted basis functions of A   symmetry.
   248 basis functions,   492 primitive gaussians,   266 cartesian basis functions
    63 alpha electrons       63 beta electrons
       nuclear repulsion energy      1148.2289346597 Hartrees.
 NAtoms=   28 NActive=   28 NUniq=   28 SFac= 1.00D+00 NAtFMM=   60 NAOKFM=F Big=F
 Integral buffers will be    131072 words long.
 Raffenetti 2 integral format.
 Two-electron integral symmetry is turned on.
 One-electron integrals computed using PRISM.
   1 Symmetry operations used in ECPInt.
 ECPInt:  NShTT=    4465 NPrTT=   24162 LenC2=    4186 LenP2D=   14452.
 LDataN:  DoStor=T MaxTD1= 7 Len=  274
 NBasis=   248 RedAO= T EigKep=  4.93D-04  NBF=   248
 NBsUse=   248 1.00D-06 EigRej= -1.00D+00 NBFU=   248
 Defaulting to unpruned grid for atomic number  79.
 ExpMin= 2.79D-02 ExpMax= 2.52D+04 ExpMxC= 3.78D+03 IAcc=3 IRadAn=         5 AccDes= 0.00D+00
 Harris functional with IExCor=  402 and IRadAn=       5 diagonalized for initial guess.
 HarFok:  IExCor=  402 AccDes= 0.00D+00 IRadAn=         5 IDoV= 1 UseB2=F ITyADJ=14
 ICtDFT=  3500011 ScaDFX=  1.000000  1.000000  1.000000  1.000000
 Defaulting to unpruned grid for atomic number  79.
 Defaulting to unpruned grid for atomic number  79.
 Defaulting to unpruned grid for atomic number  79.
 Defaulting to unpruned grid for atomic number  79.
 Defaulting to unpruned grid for atomic number  79.
 Defaulting to unpruned grid for atomic number  79.
 Defaulting to unpruned grid for atomic number  79.
 Defaulting to unpruned grid for atomic number  79.
 FoFCou: FMM=F IPFlag=           0 FMFlag=      100000 FMFlg1=           0
         NFxFlg=           0 DoJE=T BraDBF=F KetDBF=T FulRan=T
         wScrn=  0.000000 ICntrl=     500 IOpCl=  0 I1Cent=   200000004 NGrid=           0
         NMat0=    1 NMatS0=      1 NMatT0=    0 NMatD0=    1 NMtDS0=    0 NMtDT0=    0
 Petite list used in FoFCou.
 Keep R1 ints in memory in canonical form, NReq=486431014.
 Requested convergence on RMS density matrix=1.00D-08 within 128 cycles.
 Requested convergence on MAX density matrix=1.00D-06.
 Requested convergence on             energy=1.00D-06.
 No special actions if energy rises.
 Defaulting to unpruned grid for atomic number  79.
 Defaulting to unpruned grid for atomic number  79.
 Defaulting to unpruned grid for atomic number  79.
 Defaulting to unpruned grid for atomic number  79.
 Defaulting to unpruned grid for atomic number  79.
 Defaulting to unpruned grid for atomic number  79.
 Defaulting to unpruned grid for atomic number  79.
 Defaulting to unpruned grid for atomic number  79.
 SCF Done:  E(RB3LYP) =  -1327.21668755     A.U. after   13 cycles
            NFock= 13  Conv=0.59D-08     -V/T= 2.0784

 **********************************************************************

            Population analysis using the SCF density.

 **********************************************************************

 Orbital symmetries:
       Occupied  (A) (A) (A) (A) (A) (A) (A) (A) (A) (A) (A) (A)
                 (A) (A) (A) (A) (A) (A) (A) (A) (A) (A) (A) (A)
                 (A) (A) (A) (A) (A) (A) (A) (A) (A) (A) (A) (A)
                 (A) (A) (A) (A) (A) (A) (A) (A) (A) (A) (A) (A)
                 (A) (A) (A) (A) (A) (A) (A) (A) (A) (A) (A) (A)
                 (A) (A) (A)
       Virtual   (A) (A) (A) (A) (A) (A) (A) (A) (A) (A) (A) (A)
                 (A) (A) (A) (A) (A) (A) (A) (A) (A) (A) (A) (A)
                 (A) (A) (A) (A) (A) (A) (A) (A) (A) (A) (A) (A)
                 (A) (A) (A) (A) (A) (A) (A) (A) (A) (A) (A) (A)
                 (A) (A) (A) (A) (A) (A) (A) (A) (A) (A) (A) (A)
                 (A) (A) (A) (A) (A) (A) (A) (A) (A) (A) (A) (A)
                 (A) (A) (A) (A) (A) (A) (A) (A) (A) (A) (A) (A)
                 (A) (A) (A) (A) (A) (A) (A) (A) (A) (A) (A) (A)
                 (A) (A) (A) (A) (A) (A) (A) (A) (A) (A) (A) (A)
                 (A) (A) (A) (A) (A) (A) (A) (A) (A) (A) (A) (A)
                 (A) (A) (A) (A) (A) (A) (A) (A) (A) (A) (A) (A)
                 (A) (A) (A) (A) (A) (A) (A) (A) (A) (A) (A) (A)
                 (A) (A) (A) (A) (A) (A) (A) (A) (A) (A) (A) (A)
                 (A) (A) (A) (A) (A) (A) (A) (A) (A) (A) (A) (A)
                 (A) (A) (A) (A) (A) (A) (A) (A) (A) (A) (A) (A)
                 (A) (A) (A) (A) (A)
 The electronic state is 1-A.
 Alpha  occ. eigenvalues -- -101.44477 -77.12739 -10.21917 -10.21775 -10.21482
 Alpha  occ. eigenvalues --  -10.21455 -10.21166 -10.21160 -10.21104 -10.20801
 Alpha  occ. eigenvalues --  -10.19572 -10.19231  -9.37562  -7.13576  -7.13063
 Alpha  occ. eigenvalues --   -7.13061  -6.60758  -4.76907  -4.76867  -4.76700
 Alpha  occ. eigenvalues --   -4.16732  -2.31442  -2.29248  -2.29208  -0.88369
 Alpha  occ. eigenvalues --   -0.82466  -0.78590  -0.77398  -0.77259  -0.72848
 Alpha  occ. eigenvalues --   -0.69246  -0.64572  -0.63519  -0.62710  -0.58063
 Alpha  occ. eigenvalues --   -0.53825  -0.49059  -0.48290  -0.47495  -0.47356
 Alpha  occ. eigenvalues --   -0.46579  -0.44712  -0.44692  -0.42098  -0.40851
 Alpha  occ. eigenvalues --   -0.40461  -0.39102  -0.38960  -0.38220  -0.37692
 Alpha  occ. eigenvalues --   -0.37002  -0.35720  -0.35411  -0.32898  -0.32679
 Alpha  occ. eigenvalues --   -0.30223  -0.30152  -0.28485  -0.27907  -0.27774
 Alpha  occ. eigenvalues --   -0.26769  -0.23833  -0.23795
 Alpha virt. eigenvalues --   -0.04651  -0.02929  -0.00958  -0.00417   0.01195
 Alpha virt. eigenvalues --    0.04520   0.05511   0.06496   0.07297   0.08968
 Alpha virt. eigenvalues --    0.09363   0.10437   0.10955   0.12272   0.12887
 Alpha virt. eigenvalues --    0.13339   0.14179   0.15054   0.15530   0.15965
 Alpha virt. eigenvalues --    0.16438   0.17110   0.17547   0.18632   0.19816
 Alpha virt. eigenvalues --    0.20278   0.21268   0.21754   0.22845   0.25226
 Alpha virt. eigenvalues --    0.27301   0.28249   0.29700   0.31296   0.34752
 Alpha virt. eigenvalues --    0.36049   0.38123   0.38347   0.39592   0.41140
 Alpha virt. eigenvalues --    0.42663   0.44002   0.46942   0.49515   0.51253
 Alpha virt. eigenvalues --    0.52319   0.52790   0.53589   0.54128   0.54608
 Alpha virt. eigenvalues --    0.55180   0.56315   0.57027   0.57644   0.58238
 Alpha virt. eigenvalues --    0.58783   0.59150   0.59403   0.59812   0.60832
 Alpha virt. eigenvalues --    0.61482   0.62622   0.65043   0.65726   0.66073
 Alpha virt. eigenvalues --    0.68073   0.69412   0.72152   0.72944   0.77583
 Alpha virt. eigenvalues --    0.78972   0.79611   0.81580   0.82130   0.82533
 Alpha virt. eigenvalues --    0.84388   0.84529   0.85557   0.85607   0.87041
 Alpha virt. eigenvalues --    0.87676   0.88629   0.88985   0.89833   0.90889
 Alpha virt. eigenvalues --    0.92472   0.92706   0.93211   0.94048   0.95110
 Alpha virt. eigenvalues --    0.95671   0.96103   0.97539   0.97903   0.99431
 Alpha virt. eigenvalues --    1.00341   1.00505   1.01220   1.02966   1.04996
 Alpha virt. eigenvalues --    1.06054   1.08048   1.10902   1.12936   1.14456
 Alpha virt. eigenvalues --    1.18199   1.21460   1.24399   1.25498   1.29985
 Alpha virt. eigenvalues --    1.35992   1.41409   1.42342   1.44887   1.45857
 Alpha virt. eigenvalues --    1.46609   1.48441   1.50099   1.50430   1.53453
 Alpha virt. eigenvalues --    1.54158   1.63744   1.65569   1.71241   1.77806
 Alpha virt. eigenvalues --    1.80004   1.81926   1.82507   1.84513   1.87210
 Alpha virt. eigenvalues --    1.89453   1.92058   1.93456   1.95345   1.95926
 Alpha virt. eigenvalues --    1.96666   1.96975   1.97425   1.98988   1.99296
 Alpha virt. eigenvalues --    1.99598   2.00597   2.00840   2.01002   2.02578
 Alpha virt. eigenvalues --    2.02765   2.04294   2.07691   2.09113   2.10211
 Alpha virt. eigenvalues --    2.11326   2.12226   2.12995   2.13393   2.14675
 Alpha virt. eigenvalues --    2.16584   2.19817   2.26041   2.26489   2.27123
 Alpha virt. eigenvalues --    2.27387   2.28118   2.28668   2.29916   2.31977
 Alpha virt. eigenvalues --    2.32175   2.32914   2.33558   2.53987   2.55989
 Alpha virt. eigenvalues --    2.58704   2.61229   2.62852   2.64203   2.66530
 Alpha virt. eigenvalues --    2.69264   2.73802   2.74693   2.76902   3.01955
 Alpha virt. eigenvalues --    3.37303  15.59306  15.61373  15.68033  43.14246
          Condensed to atoms (all electrons):
               1          2          3          4          5          6
     1  Au  18.446176   0.262897   0.329066  -0.038330   0.003827   0.002084
     2  Cl   0.262897  17.128785  -0.001057  -0.000009   0.000000  -0.000028
     3  P    0.329066  -0.001057  13.682444   0.311092  -0.030227  -0.040458
     4  C   -0.038330  -0.000009   0.311092   5.012017   0.492603   0.541379
     5  C    0.003827   0.000000  -0.030227   0.492603   4.918378  -0.016996
     6  C    0.002084  -0.000028  -0.040458   0.541379  -0.016996   4.905773
     7  C   -0.000312   0.000000   0.003111  -0.026089   0.533977  -0.045111
     8  H    0.000422   0.000000  -0.005610  -0.058824   0.362731   0.005091
     9  C    0.000838   0.000001   0.006279  -0.032663  -0.047862   0.515472
    10  H    0.011644  -0.000106  -0.016638  -0.040975   0.004747   0.362331
    11  C   -0.000434   0.000000   0.000145  -0.037278  -0.026400  -0.025889
    12  H    0.000037   0.000000  -0.000229   0.004691  -0.041429   0.000662
    13  H    0.000459   0.000000  -0.000256   0.004536   0.000772  -0.038423
    14  H   -0.000023   0.000000   0.000018   0.000613   0.004858   0.004721
    15  C   -0.027761   0.000015   0.302653  -0.031531  -0.002256  -0.000386
    16  C    0.002122  -0.000021  -0.040926  -0.003365  -0.001177  -0.000073
    17  H    0.004966  -0.000001  -0.031420  -0.004862   0.000712   0.000032
    18  H   -0.004362  -0.000014  -0.031976   0.002186   0.000057  -0.000013
    19  H   -0.000906   0.000000   0.005204   0.000017   0.000000   0.000000
    20  H    0.000250  -0.000002  -0.004508   0.005268   0.001540   0.000196
    21  H    0.011187  -0.000074  -0.011312  -0.000145   0.000023  -0.000062
    22  C   -0.028947   0.000021   0.301133  -0.032911  -0.003136  -0.001003
    23  C   -0.000509  -0.000029  -0.035015   0.001964   0.000102   0.000003
    24  H    0.005085  -0.000001  -0.029917  -0.003445   0.001361   0.000050
    25  H   -0.001959  -0.000012  -0.029760  -0.000620  -0.000122   0.000188
    26  H   -0.000786   0.000000   0.004488  -0.000053  -0.000004   0.000000
    27  H    0.000077  -0.000003  -0.006883  -0.000007  -0.000003  -0.000001
    28  H    0.011585  -0.000095  -0.010722  -0.000002   0.000000  -0.000001
               7          8          9         10         11         12
     1  Au  -0.000312   0.000422   0.000838   0.011644  -0.000434   0.000037
     2  Cl   0.000000   0.000000   0.000001  -0.000106   0.000000   0.000000
     3  P    0.003111  -0.005610   0.006279  -0.016638   0.000145  -0.000229
     4  C   -0.026089  -0.058824  -0.032663  -0.040975  -0.037278   0.004691
     5  C    0.533977   0.362731  -0.047862   0.004747  -0.026400  -0.041429
     6  C   -0.045111   0.005091   0.515472   0.362331  -0.025889   0.000662
     7  C    4.849749  -0.040894  -0.025373   0.000449   0.548489   0.361534
     8  H   -0.040894   0.596122   0.000424  -0.000154   0.004620  -0.005806
     9  C   -0.025373   0.000424   4.864498  -0.039740   0.549755   0.004467
    10  H    0.000449  -0.000154  -0.039740   0.515174   0.004271   0.000013
    11  C    0.548489   0.004620   0.549755   0.004271   4.828202  -0.041351
    12  H    0.361534  -0.005806   0.004467   0.000013  -0.041351   0.581499
    13  H    0.004329   0.000017   0.362793  -0.005242  -0.042447  -0.000169
    14  H   -0.042267  -0.000175  -0.041568  -0.000151   0.362270  -0.005572
    15  C    0.000135  -0.000082  -0.000093   0.000119   0.000008  -0.000001
    16  C   -0.000036  -0.000021   0.000009  -0.000045   0.000007   0.000000
    17  H   -0.000037   0.003791   0.000001  -0.000007  -0.000001   0.000004
    18  H    0.000002  -0.000091   0.000001  -0.000004   0.000000   0.000000
    19  H    0.000000   0.000002   0.000000   0.000001   0.000000   0.000000
    20  H    0.000021  -0.000053  -0.000034  -0.000037  -0.000022  -0.000001
    21  H    0.000002   0.000002  -0.000001  -0.000024   0.000000   0.000000
    22  C    0.000107  -0.000469  -0.000099   0.000092   0.000008  -0.000001
    23  C    0.000001  -0.000056   0.000000  -0.000003   0.000000   0.000000
    24  H   -0.000038   0.002935   0.000004  -0.000008  -0.000001   0.000003
    25  H   -0.000005  -0.000019  -0.000022  -0.000009   0.000000   0.000000
    26  H    0.000000   0.000003   0.000000   0.000000   0.000000   0.000000
    27  H    0.000000  -0.000004   0.000000   0.000000   0.000000   0.000000
    28  H    0.000000   0.000000   0.000000  -0.000001   0.000000   0.000000
              13         14         15         16         17         18
     1  Au   0.000459  -0.000023  -0.027761   0.002122   0.004966  -0.004362
     2  Cl   0.000000   0.000000   0.000015  -0.000021  -0.000001  -0.000014
     3  P   -0.000256   0.000018   0.302653  -0.040926  -0.031420  -0.031976
     4  C    0.004536   0.000613  -0.031531  -0.003365  -0.004862   0.002186
     5  C    0.000772   0.004858  -0.002256  -0.001177   0.000712   0.000057
     6  C   -0.038423   0.004721  -0.000386  -0.000073   0.000032  -0.000013
     7  C    0.004329  -0.042267   0.000135  -0.000036  -0.000037   0.000002
     8  H    0.000017  -0.000175  -0.000082  -0.000021   0.003791  -0.000091
     9  C    0.362793  -0.041568  -0.000093   0.000009   0.000001   0.000001
    10  H   -0.005242  -0.000151   0.000119  -0.000045  -0.000007  -0.000004
    11  C   -0.042447   0.362270   0.000008   0.000007  -0.000001   0.000000
    12  H   -0.000169  -0.005572  -0.000001   0.000000   0.000004   0.000000
    13  H    0.569053  -0.005583   0.000001   0.000000   0.000000   0.000000
    14  H   -0.005583   0.577808   0.000000   0.000000   0.000000   0.000000
    15  C    0.000001   0.000000   5.248501   0.365655   0.356429   0.368494
    16  C    0.000000   0.000000   0.365655   5.068921  -0.031639  -0.027342
    17  H    0.000000   0.000000   0.356429  -0.031639   0.565363  -0.030127
    18  H    0.000000   0.000000   0.368494  -0.027342  -0.030127   0.531151
    19  H    0.000000   0.000000  -0.028582   0.372963  -0.004526  -0.004359
    20  H   -0.000001   0.000000  -0.038959   0.380459  -0.003237   0.004609
    21  H    0.000000   0.000000  -0.032481   0.384472   0.004030  -0.003460
    22  C    0.000001   0.000000  -0.035993   0.001788  -0.002575  -0.001018
    23  C    0.000000   0.000000  -0.001356   0.000082  -0.000185   0.001257
    24  H    0.000000   0.000000  -0.004809  -0.000002   0.002711  -0.000275
    25  H    0.000000   0.000000   0.002103  -0.000028  -0.000005   0.000036
    26  H    0.000000   0.000000  -0.000020   0.000000  -0.000011  -0.000042
    27  H    0.000000   0.000000   0.001833  -0.000011   0.000263   0.003217
    28  H    0.000000   0.000000  -0.000147  -0.000006   0.000003   0.000004
              19         20         21         22         23         24
     1  Au  -0.000906   0.000250   0.011187  -0.028947  -0.000509   0.005085
     2  Cl   0.000000  -0.000002  -0.000074   0.000021  -0.000029  -0.000001
     3  P    0.005204  -0.004508  -0.011312   0.301133  -0.035015  -0.029917
     4  C    0.000017   0.005268  -0.000145  -0.032911   0.001964  -0.003445
     5  C    0.000000   0.001540   0.000023  -0.003136   0.000102   0.001361
     6  C    0.000000   0.000196  -0.000062  -0.001003   0.000003   0.000050
     7  C    0.000000   0.000021   0.000002   0.000107   0.000001  -0.000038
     8  H    0.000002  -0.000053   0.000002  -0.000469  -0.000056   0.002935
     9  C    0.000000  -0.000034  -0.000001  -0.000099   0.000000   0.000004
    10  H    0.000001  -0.000037  -0.000024   0.000092  -0.000003  -0.000008
    11  C    0.000000  -0.000022   0.000000   0.000008   0.000000  -0.000001
    12  H    0.000000  -0.000001   0.000000  -0.000001   0.000000   0.000003
    13  H    0.000000  -0.000001   0.000000   0.000001   0.000000   0.000000
    14  H    0.000000   0.000000   0.000000   0.000000   0.000000   0.000000
    15  C   -0.028582  -0.038959  -0.032481  -0.035993  -0.001356  -0.004809
    16  C    0.372963   0.380459   0.384472   0.001788   0.000082  -0.000002
    17  H   -0.004526  -0.003237   0.004030  -0.002575  -0.000185   0.002711
    18  H   -0.004359   0.004609  -0.003460  -0.001018   0.001257  -0.000275
    19  H    0.555828  -0.029573  -0.026855  -0.000063  -0.000001  -0.000002
    20  H   -0.029573   0.542115  -0.027805   0.000026  -0.000001  -0.000001
    21  H   -0.026855  -0.027805   0.495766   0.000012  -0.000007  -0.000001
    22  C   -0.000063   0.000026   0.000012   5.261924   0.351870   0.357334
    23  C   -0.000001  -0.000001  -0.000007   0.351870   5.077635  -0.032227
    24  H   -0.000002  -0.000001  -0.000001   0.357334  -0.032227   0.562041
    25  H    0.000001  -0.000001   0.000000   0.372671  -0.028117  -0.028831
    26  H    0.000000   0.000000   0.000000  -0.027814   0.373534  -0.003893
    27  H    0.000003   0.000001   0.000001  -0.037585   0.380952  -0.003334
    28  H    0.000000   0.000000  -0.000001  -0.032834   0.384274   0.003965
              25         26         27         28
     1  Au  -0.001959  -0.000786   0.000077   0.011585
     2  Cl  -0.000012   0.000000  -0.000003  -0.000095
     3  P   -0.029760   0.004488  -0.006883  -0.010722
     4  C   -0.000620  -0.000053  -0.000007  -0.000002
     5  C   -0.000122  -0.000004  -0.000003   0.000000
     6  C    0.000188   0.000000  -0.000001  -0.000001
     7  C   -0.000005   0.000000   0.000000   0.000000
     8  H   -0.000019   0.000003  -0.000004   0.000000
     9  C   -0.000022   0.000000   0.000000   0.000000
    10  H   -0.000009   0.000000   0.000000  -0.000001
    11  C    0.000000   0.000000   0.000000   0.000000
    12  H    0.000000   0.000000   0.000000   0.000000
    13  H    0.000000   0.000000   0.000000   0.000000
    14  H    0.000000   0.000000   0.000000   0.000000
    15  C    0.002103  -0.000020   0.001833  -0.000147
    16  C   -0.000028   0.000000  -0.000011  -0.000006
    17  H   -0.000005  -0.000011   0.000263   0.000003
    18  H    0.000036  -0.000042   0.003217   0.000004
    19  H    0.000001   0.000000   0.000003   0.000000
    20  H   -0.000001   0.000000   0.000001   0.000000
    21  H    0.000000   0.000000   0.000001  -0.000001
    22  C    0.372671  -0.027814  -0.037585  -0.032834
    23  C   -0.028117   0.373534   0.380952   0.384274
    24  H   -0.028831  -0.003893  -0.003334   0.003965
    25  H    0.519363  -0.005107   0.004404  -0.003171
    26  H   -0.005107   0.550292  -0.029646  -0.026248
    27  H    0.004404  -0.029646   0.557405  -0.028529
    28  H   -0.003171  -0.026248  -0.028529   0.491361
 Mulliken charges:
               1
     1  Au   0.011605
     2  Cl  -0.390269
     3  P    0.381282
     4  C   -0.065259
     5  C   -0.156075
     6  C   -0.169540
     7  C   -0.121746
     8  H    0.136100
     9  C   -0.117088
    10  H    0.204303
    11  C   -0.123951
    12  H    0.141648
    13  H    0.150159
    14  H    0.145051
    15  C   -0.441487
    16  C   -0.471786
    17  H    0.170327
    18  H    0.192068
    19  H    0.160849
    20  H    0.169751
    21  H    0.206732
    22  C   -0.442538
    23  C   -0.474169
    24  H    0.171294
    25  H    0.199020
    26  H    0.165308
    27  H    0.157849
    28  H    0.210565
 Sum of Mulliken charges =   0.00000
 Mulliken charges with hydrogens summed into heavy atoms:
               1
     1  Au   0.011605
     2  Cl  -0.390269
     3  P    0.381282
     4  C   -0.065259
     5  C   -0.019976
     6  C    0.034763
     7  C    0.019903
     9  C    0.033070
    11  C    0.021100
    15  C   -0.079092
    16  C    0.065546
    22  C   -0.072225
    23  C    0.059552
 Electronic spatial extent (au):  <R**2>=           4515.3119
 Charge=              0.0000 electrons
 Dipole moment (field-independent basis, Debye):
    X=             -9.3743    Y=              4.3820    Z=              0.0264  Tot=             10.3479
 Quadrupole moment (field-independent basis, Debye-Ang):
   XX=           -119.5198   YY=           -102.1843   ZZ=           -109.2192
   XY=              9.5693   XZ=              0.4083   YZ=              0.5775
 Traceless Quadrupole moment (field-independent basis, Debye-Ang):
   XX=             -9.2120   YY=              8.1234   ZZ=              1.0886
   XY=              9.5693   XZ=              0.4083   YZ=              0.5775
 Octapole moment (field-independent basis, Debye-Ang**2):
  XXX=             32.0945  YYY=            -21.7687  ZZZ=              2.0130  XYY=             23.4334
  XXY=              6.3440  XXZ=             -2.8936  XZZ=             62.0597  YZZ=              3.9354
  YYZ=             -5.8557  XYZ=             -4.5116
 Hexadecapole moment (field-independent basis, Debye-Ang**3):
 XXXX=          -3699.6570 YYYY=          -1529.4018 ZZZZ=           -765.3749 XXXY=            105.2280
 XXXZ=             14.1085 YYYX=             17.3171 YYYZ=              5.2739 ZZZX=            -13.7755
 ZZZY=             -1.8760 XXYY=           -869.9679 XXZZ=           -816.2339 YYZZ=           -388.0864
 XXYZ=             13.0459 YYXZ=              8.0334 ZZXY=            -26.3433
 N-N= 1.148228934660D+03 E-N=-5.386066639736D+03  KE= 1.230704501060D+03
   1 Symmetry operations used in ECPInt.
 ECPInt:  NShTT=    4465 NPrTT=   24162 LenC2=    4186 LenP2D=   14452.
 LDataN:  DoStor=T MaxTD1= 8 Len=  415
 Calling FoFJK, ICntrl=      2127 FMM=F ISym2X=0 I1Cent= 0 IOpClX= 0 NMat=1 NMatS=1 NMatT=0.
 Defaulting to unpruned grid for atomic number  79.
 Defaulting to unpruned grid for atomic number  79.
 Defaulting to unpruned grid for atomic number  79.
 Defaulting to unpruned grid for atomic number  79.
 Defaulting to unpruned grid for atomic number  79.
 Defaulting to unpruned grid for atomic number  79.
 Defaulting to unpruned grid for atomic number  79.
 Defaulting to unpruned grid for atomic number  79.
 ***** Axes restored to original set *****
 -------------------------------------------------------------------
 Center     Atomic                   Forces (Hartrees/Bohr)
 Number     Number              X              Y              Z
 -------------------------------------------------------------------
      1       79           0.009976561   -0.004664443   -0.000223864
      2       17          -0.005735976    0.002979806    0.000056490
      3       15           0.007862704   -0.008535334   -0.000184077
      4        6          -0.001776036    0.001270092   -0.000024434
      5        6          -0.002313970    0.001616149    0.000182536
      6        6           0.003142691   -0.003148940   -0.000308159
      7        6          -0.003431396    0.001690391    0.000123333
      8        1           0.000054767    0.000471880    0.000026427
      9        6           0.000012167   -0.003056292   -0.000421017
     10        1          -0.000252166   -0.000077964    0.000043600
     11        6          -0.002514396   -0.001977333   -0.000175414
     12        1          -0.000637792    0.000042164    0.000006558
     13        1           0.000118309   -0.000306823   -0.000033844
     14        1          -0.000388525   -0.000220009   -0.000030307
     15        6          -0.001563640    0.006050818    0.001023033
     16        6          -0.000181107   -0.001297489    0.003721091
     17        1          -0.000915373    0.001241299    0.001330429
     18        1           0.000250526    0.000654051    0.000843519
     19        1           0.000004117    0.000128756    0.001000167
     20        1          -0.000054107   -0.000282585    0.000110479
     21        1           0.000125297   -0.000113760    0.000189379
     22        6          -0.004253637    0.001905752   -0.003525906
     23        6           0.002249093    0.002273351   -0.001539953
     24        1          -0.000832388    0.001164919   -0.001403552
     25        1          -0.000077952    0.000449434   -0.000833495
     26        1           0.000468289    0.000864649   -0.000477239
     27        1           0.000396054    0.000595031    0.000541832
     28        1           0.000267888    0.000282429   -0.000017612
 -------------------------------------------------------------------
 Cartesian Forces:  Max     0.009976561 RMS     0.002395316

 GradGradGradGradGradGradGradGradGradGradGradGradGradGradGradGradGradGrad
 Berny optimization.
 FormGI is forming the generalized inverse of G from B-inverse, IUseBI=4.
 Internal  Forces:  Max     0.010599061 RMS     0.001981689
 Search for a local minimum.
 Step number   1 out of a maximum of  154
 All quantities printed in internal units (Hartrees-Bohrs-Radians)
 Mixed Optimization -- RFO/linear search
 Second derivative matrix not updated -- first step.
 ITU=  0
     Eigenvalues ---    0.00230   0.00230   0.00425   0.00435   0.00756
     Eigenvalues ---    0.00781   0.00956   0.01644   0.02112   0.02146
     Eigenvalues ---    0.02156   0.02177   0.02182   0.02189   0.02193
     Eigenvalues ---    0.02197   0.03626   0.03683   0.04921   0.04947
     Eigenvalues ---    0.05455   0.05515   0.05668   0.05681   0.06447
     Eigenvalues ---    0.07263   0.07403   0.08586   0.08660   0.12321
     Eigenvalues ---    0.12374   0.16000   0.16000   0.16000   0.16000
     Eigenvalues ---    0.16000   0.16000   0.16000   0.16000   0.16000
     Eigenvalues ---    0.16000   0.16000   0.16699   0.18020   0.18670
     Eigenvalues ---    0.21943   0.21955   0.22000   0.22000   0.23138
     Eigenvalues ---    0.23477   0.23827   0.23959   0.24914   0.24999
     Eigenvalues ---    0.29817   0.29890   0.34100   0.34106   0.34200
     Eigenvalues ---    0.34205   0.34259   0.34274   0.34302   0.34338
     Eigenvalues ---    0.34349   0.34357   0.35190   0.35216   0.35284
     Eigenvalues ---    0.35304   0.35304   0.42133   0.42337   0.46017
     Eigenvalues ---    0.46377   0.46878   0.47106
 RFO step:  Lambda=-2.35929184D-03 EMin= 2.30000000D-03
 Linear search not attempted -- first point.
 Iteration  1 RMS(Cart)=  0.05038072 RMS(Int)=  0.00303221
 Iteration  2 RMS(Cart)=  0.00303657 RMS(Int)=  0.00002483
 Iteration  3 RMS(Cart)=  0.00000562 RMS(Int)=  0.00002477
 Iteration  4 RMS(Cart)=  0.00000000 RMS(Int)=  0.00002477
 Variable       Old X    -DE/DX   Delta X   Delta X   Delta X     New X
                                 (Linear)    (Quad)   (Total)
    R1        4.42051  -0.00646   0.00000  -0.03418  -0.03418   4.38633
    R2        4.27543   0.00452   0.00000   0.01933   0.01933   4.29476
    R3        3.43127   0.00865   0.00000   0.03438   0.03438   3.46565
    R4        3.45631   0.01060   0.00000   0.04381   0.04381   3.50012
    R5        3.45988   0.01052   0.00000   0.04370   0.04370   3.50358
    R6        2.64674   0.00556   0.00000   0.01228   0.01229   2.65902
    R7        2.64038   0.00541   0.00000   0.01182   0.01182   2.65221
    R8        2.62756   0.00385   0.00000   0.00810   0.00810   2.63566
    R9        2.05326   0.00046   0.00000   0.00130   0.00130   2.05456
   R10        2.63165   0.00395   0.00000   0.00839   0.00839   2.64004
   R11        2.05368  -0.00020   0.00000  -0.00057  -0.00057   2.05311
   R12        2.63416   0.00340   0.00000   0.00710   0.00710   2.64125
   R13        2.05184   0.00060   0.00000   0.00169   0.00169   2.05353
   R14        2.62988   0.00356   0.00000   0.00741   0.00740   2.63728
   R15        2.05185   0.00032   0.00000   0.00090   0.00090   2.05275
   R16        2.05216   0.00044   0.00000   0.00125   0.00125   2.05341
   R17        2.88184   0.00506   0.00000   0.01681   0.01681   2.89865
   R18        2.07162   0.00129   0.00000   0.00375   0.00375   2.07537
   R19        2.06986   0.00063   0.00000   0.00182   0.00182   2.07168
   R20        2.06744   0.00087   0.00000   0.00252   0.00252   2.06996
   R21        2.06824   0.00023   0.00000   0.00067   0.00067   2.06891
   R22        2.06870   0.00018   0.00000   0.00052   0.00052   2.06922
   R23        2.88329   0.00528   0.00000   0.01756   0.01756   2.90085
   R24        2.07151   0.00115   0.00000   0.00334   0.00334   2.07485
   R25        2.06994   0.00044   0.00000   0.00127   0.00127   2.07121
   R26        2.06764   0.00082   0.00000   0.00238   0.00238   2.07003
   R27        2.06733   0.00080   0.00000   0.00232   0.00232   2.06965
   R28        2.06896   0.00011   0.00000   0.00032   0.00032   2.06927
    A1        1.98760   0.00076   0.00000   0.01158   0.01158   1.99918
    A2        1.96773   0.00040   0.00000   0.00478   0.00478   1.97251
    A3        1.97470   0.00031   0.00000   0.00284   0.00287   1.97757
    A4        1.84713  -0.00020   0.00000  -0.00382  -0.00391   1.84321
    A5        1.83227  -0.00048   0.00000  -0.00667  -0.00673   1.82554
    A6        1.84122  -0.00099   0.00000  -0.01128  -0.01132   1.82989
    A7        2.10300   0.00132   0.00000   0.00504   0.00503   2.10803
    A8        2.09854   0.00046   0.00000   0.00163   0.00163   2.10017
    A9        2.08161  -0.00179   0.00000  -0.00667  -0.00667   2.07494
   A10        2.09896   0.00114   0.00000   0.00524   0.00524   2.10420
   A11        2.10644  -0.00069   0.00000  -0.00335  -0.00335   2.10308
   A12        2.07779  -0.00045   0.00000  -0.00189  -0.00189   2.07590
   A13        2.10112   0.00028   0.00000   0.00142   0.00143   2.10254
   A14        2.08671   0.00003   0.00000   0.00034   0.00034   2.08705
   A15        2.09536  -0.00031   0.00000  -0.00176  -0.00176   2.09359
   A16        2.09631  -0.00025   0.00000  -0.00159  -0.00159   2.09472
   A17        2.08923   0.00035   0.00000   0.00217   0.00218   2.09140
   A18        2.09765  -0.00010   0.00000  -0.00059  -0.00059   2.09706
   A19        2.09471   0.00057   0.00000   0.00215   0.00215   2.09685
   A20        2.08975  -0.00037   0.00000  -0.00160  -0.00160   2.08815
   A21        2.09873  -0.00020   0.00000  -0.00055  -0.00055   2.09818
   A22        2.09367   0.00005   0.00000  -0.00055  -0.00056   2.09311
   A23        2.09383  -0.00007   0.00000  -0.00004  -0.00004   2.09379
   A24        2.09568   0.00003   0.00000   0.00060   0.00060   2.09628
   A25        1.97811   0.00116   0.00000   0.00726   0.00727   1.98538
   A26        1.88395   0.00070   0.00000   0.01160   0.01162   1.89557
   A27        1.85229   0.00007   0.00000   0.00381   0.00384   1.85613
   A28        1.94151  -0.00114   0.00000  -0.00851  -0.00860   1.93291
   A29        1.93210  -0.00076   0.00000  -0.00848  -0.00853   1.92358
   A30        1.87050   0.00000   0.00000  -0.00543  -0.00553   1.86497
   A31        1.92010   0.00068   0.00000   0.00462   0.00462   1.92471
   A32        1.94523   0.00010   0.00000   0.00062   0.00062   1.94585
   A33        1.94010   0.00005   0.00000  -0.00013  -0.00013   1.93997
   A34        1.88305  -0.00031   0.00000  -0.00099  -0.00100   1.88205
   A35        1.88681  -0.00039   0.00000  -0.00240  -0.00240   1.88441
   A36        1.88655  -0.00018   0.00000  -0.00194  -0.00194   1.88461
   A37        1.98719   0.00112   0.00000   0.00750   0.00750   1.99469
   A38        1.88187   0.00069   0.00000   0.01176   0.01177   1.89365
   A39        1.84427   0.00002   0.00000   0.00303   0.00306   1.84733
   A40        1.93992  -0.00102   0.00000  -0.00698  -0.00709   1.93283
   A41        1.93335  -0.00067   0.00000  -0.00770  -0.00774   1.92561
   A42        1.87112  -0.00013   0.00000  -0.00763  -0.00771   1.86341
   A43        1.91586   0.00090   0.00000   0.00611   0.00610   1.92197
   A44        1.95333   0.00028   0.00000   0.00144   0.00143   1.95476
   A45        1.94062   0.00027   0.00000   0.00136   0.00136   1.94198
   A46        1.87789  -0.00056   0.00000  -0.00289  -0.00290   1.87499
   A47        1.88604  -0.00054   0.00000  -0.00281  -0.00281   1.88322
   A48        1.88775  -0.00042   0.00000  -0.00362  -0.00362   1.88413
   A49        3.15974  -0.00063   0.00000  -0.13457  -0.13457   3.02516
   A50        3.14508  -0.00022   0.00000  -0.04621  -0.04621   3.09886
    D1        3.09547   0.00015   0.00000   0.00431   0.00432   3.09979
    D2       -0.05638   0.00012   0.00000   0.00352   0.00352  -0.05286
    D3        0.92422  -0.00070   0.00000  -0.00646  -0.00646   0.91777
    D4       -2.22763  -0.00073   0.00000  -0.00725  -0.00725  -2.23488
    D5       -1.01841   0.00067   0.00000   0.01034   0.01034  -1.00808
    D6        2.11292   0.00065   0.00000   0.00955   0.00954   2.12246
    D7       -1.03654  -0.00035   0.00000  -0.00292  -0.00291  -1.03945
    D8        3.08817  -0.00019   0.00000  -0.00545  -0.00547   3.08270
    D9        1.08758  -0.00056   0.00000  -0.00648  -0.00647   1.08111
   D10        1.14704   0.00072   0.00000   0.01201   0.01201   1.15905
   D11       -1.01143   0.00088   0.00000   0.00948   0.00945  -1.00198
   D12       -3.01202   0.00051   0.00000   0.00845   0.00844  -3.00357
   D13        3.08337  -0.00031   0.00000  -0.00161  -0.00157   3.08179
   D14        0.92489  -0.00014   0.00000  -0.00413  -0.00413   0.92076
   D15       -1.07569  -0.00051   0.00000  -0.00516  -0.00514  -1.08083
   D16       -0.96315   0.00027   0.00000   0.00260   0.00262  -0.96054
   D17       -3.12423   0.00030   0.00000  -0.00232  -0.00235  -3.12658
   D18        1.16250   0.00012   0.00000  -0.00039  -0.00038   1.16212
   D19       -3.14061  -0.00054   0.00000  -0.00897  -0.00893   3.13365
   D20        0.98150  -0.00051   0.00000  -0.01388  -0.01389   0.96761
   D21       -1.01496  -0.00069   0.00000  -0.01195  -0.01192  -1.02688
   D22        1.19571   0.00026   0.00000   0.00245   0.00245   1.19817
   D23       -0.96536   0.00030   0.00000  -0.00246  -0.00251  -0.96787
   D24       -2.96182   0.00012   0.00000  -0.00053  -0.00054  -2.96236
   D25        3.13152  -0.00002   0.00000  -0.00079  -0.00079   3.13072
   D26       -0.01043   0.00000   0.00000  -0.00004  -0.00004  -0.01047
   D27        0.00008  -0.00001   0.00000  -0.00005  -0.00006   0.00003
   D28        3.14132   0.00001   0.00000   0.00070   0.00070  -3.14116
   D29       -3.13057   0.00002   0.00000   0.00120   0.00119  -3.12937
   D30        0.01130   0.00003   0.00000   0.00159   0.00159   0.01289
   D31        0.00090   0.00002   0.00000   0.00048   0.00048   0.00137
   D32       -3.14043   0.00002   0.00000   0.00087   0.00087  -3.13955
   D33       -0.00109   0.00000   0.00000   0.00007   0.00007  -0.00103
   D34        3.14112   0.00000   0.00000   0.00004   0.00004   3.14115
   D35        3.14085  -0.00002   0.00000  -0.00068  -0.00068   3.14017
   D36       -0.00012  -0.00002   0.00000  -0.00071  -0.00071  -0.00083
   D37       -0.00087  -0.00002   0.00000  -0.00091  -0.00092  -0.00178
   D38       -3.14119   0.00000   0.00000  -0.00004  -0.00004  -3.14123
   D39        3.14046  -0.00003   0.00000  -0.00131  -0.00131   3.13914
   D40        0.00013  -0.00001   0.00000  -0.00043  -0.00044  -0.00031
   D41        0.00113  -0.00001   0.00000  -0.00050  -0.00050   0.00063
   D42        3.14157   0.00000   0.00000   0.00006   0.00006  -3.14156
   D43       -3.14109  -0.00001   0.00000  -0.00047  -0.00047  -3.14155
   D44       -0.00064   0.00000   0.00000   0.00009   0.00009  -0.00056
   D45       -0.00015   0.00002   0.00000   0.00092   0.00092   0.00077
   D46       -3.14059   0.00001   0.00000   0.00036   0.00036  -3.14023
   D47        3.14017   0.00000   0.00000   0.00004   0.00004   3.14020
   D48       -0.00027  -0.00001   0.00000  -0.00052  -0.00052  -0.00079
   D49        3.12684  -0.00022   0.00000  -0.00153  -0.00153   3.12532
   D50       -1.06837  -0.00009   0.00000   0.00067   0.00068  -1.06770
   D51        1.03747  -0.00021   0.00000  -0.00147  -0.00146   1.03601
   D52       -1.02971   0.00068   0.00000   0.01255   0.01250  -1.01721
   D53        1.05826   0.00081   0.00000   0.01474   0.01470   1.07296
   D54       -3.11909   0.00069   0.00000   0.01261   0.01256  -3.10652
   D55        1.04802  -0.00055   0.00000  -0.00532  -0.00529   1.04273
   D56        3.13599  -0.00042   0.00000  -0.00312  -0.00308   3.13290
   D57       -1.04136  -0.00054   0.00000  -0.00526  -0.00522  -1.04658
   D58        3.07939  -0.00018   0.00000   0.00128   0.00129   3.08067
   D59       -1.11991  -0.00010   0.00000   0.00263   0.00264  -1.11726
   D60        0.99340  -0.00025   0.00000  -0.00005  -0.00005   0.99336
   D61       -1.07447   0.00077   0.00000   0.01693   0.01689  -1.05758
   D62        1.00942   0.00085   0.00000   0.01828   0.01824   1.02767
   D63        3.12273   0.00069   0.00000   0.01560   0.01555   3.13829
   D64        1.00382  -0.00049   0.00000  -0.00220  -0.00216   1.00166
   D65        3.08772  -0.00041   0.00000  -0.00085  -0.00081   3.08691
   D66       -1.08216  -0.00056   0.00000  -0.00353  -0.00350  -1.08566
         Item               Value     Threshold  Converged?
 Maximum Force            0.010599     0.000450     NO 
 RMS     Force            0.001982     0.000300     NO 
 Maximum Displacement     0.414552     0.001800     NO 
 RMS     Displacement     0.050112     0.001200     NO 
 Predicted change in Energy=-1.216429D-03
 GradGradGradGradGradGradGradGradGradGradGradGradGradGradGradGradGradGrad

                          Input orientation:                          
 ---------------------------------------------------------------------
 Center     Atomic      Atomic             Coordinates (Angstroms)
 Number     Number       Type             X           Y           Z
 ---------------------------------------------------------------------
      1         79           0        1.370608   -0.211794   -0.033235
      2         17           0        3.248462   -1.575210    0.016604
      3         15           0       -0.614971    0.893813   -0.018101
      4          6           0       -2.090705   -0.188895   -0.133445
      5          6           0       -3.387852    0.354209   -0.084813
      6          6           0       -1.941808   -1.576159   -0.285454
      7          6           0       -4.506898   -0.472098   -0.185927
      8          1           0       -3.533568    1.425288    0.031876
      9          6           0       -3.063948   -2.401978   -0.388241
     10          1           0       -0.945434   -2.007739   -0.322463
     11          6           0       -4.345655   -1.852078   -0.338241
     12          1           0       -5.503204   -0.040008   -0.146506
     13          1           0       -2.933177   -3.473985   -0.505203
     14          1           0       -5.218095   -2.495036   -0.416966
     15          6           0       -0.863837    1.914652    1.507195
     16          6           0       -0.834216    1.100762    2.807024
     17          1           0       -1.811472    2.461530    1.412109
     18          1           0       -0.063493    2.663838    1.511075
     19          1           0       -0.969918    1.760240    3.671040
     20          1           0       -1.631688    0.350970    2.828991
     21          1           0        0.122043    0.580732    2.925886
     22          6           0       -0.800457    2.087804   -1.424287
     23          6           0        0.330631    3.120297   -1.529274
     24          1           0       -1.774491    2.586070   -1.332019
     25          1           0       -0.843088    1.476010   -2.332686
     26          1           0        0.186257    3.748643   -2.414858
     27          1           0        0.362932    3.783444   -0.658253
     28          1           0        1.306842    2.632313   -1.618344
 ---------------------------------------------------------------------
                    Distance matrix (angstroms):
                    1          2          3          4          5
     1  Au   0.000000
     2  Cl   2.321147   0.000000
     3  P    2.272689   4.585127   0.000000
     4  C    3.462839   5.518251   1.833945   0.000000
     5  C    4.792281   6.911845   2.825684   1.407094   0.000000
     6  C    3.591267   5.199052   2.816511   1.403488   2.420252
     7  C    5.885248   7.836038   4.128072   2.433300   1.394731
     8  H    5.170611   7.416142   2.967015   2.171352   1.087225
     9  C    4.958651   6.379182   4.122709   2.431020   2.791693
    10  H    2.945016   4.229753   2.936127   2.157676   3.405977
    11  C    5.954765   7.607443   4.643319   2.809434   2.418536
    12  H    6.876890   8.886794   4.978286   3.415769   2.152656
    13  H    5.420997   6.487703   4.968803   3.411712   3.877954
    14  H    6.983655   8.527405   5.729934   3.896054   3.402692
    15  C    3.447817   5.595714   1.852182   2.936293   3.367510
    16  C    3.827678   5.622770   2.841167   3.447946   3.929518
    17  H    4.400149   6.621604   2.436156   3.080821   3.027631
    18  H    3.565220   5.583191   2.403226   3.866797   4.351161
    19  H    4.805063   6.501912   3.806107   4.419208   4.682922
    20  H    4.186027   5.952777   3.071535   3.046011   3.402114
    21  H    3.308082   4.783985   3.050946   3.853321   4.629793
    22  C    3.454953   5.646909   1.854017   2.917940   3.390303
    23  C    3.797699   5.740319   2.852199   4.331508   4.854361
    24  H    4.405285   6.660713   2.436104   3.039243   3.023186
    25  H    3.610625   5.618709   2.397560   3.027395   3.575918
    26  H    4.770732   6.605492   3.812672   5.088577   5.452114
    27  H    4.167492   6.123471   3.117059   4.698429   5.114378
    28  H    3.256622   4.913878   3.045739   4.659128   5.438899
                    6          7          8          9         10
     6  C    0.000000
     7  C    2.794377   0.000000
     8  H    3.412196   2.143568   0.000000
     9  C    1.397047   2.418154   3.878789   0.000000
    10  H    1.086458   3.880833   4.313892   2.155888   0.000000
    11  C    2.420207   1.397692   3.396704   1.395587   3.403819
    12  H    3.881057   1.086683   2.461377   3.404013   4.967513
    13  H    2.152405   3.404388   4.965058   1.086269   2.476771
    14  H    3.405244   2.156724   4.290458   2.156347   4.301397
    15  C    4.069567   4.672808   3.089257   5.202544   4.328910
    16  C    4.237462   4.992017   3.885005   5.239333   4.412350
    17  H    4.381968   4.292461   2.438126   5.335135   4.871665
    18  H    4.973244   5.697172   3.970323   6.186487   5.095420
    19  H    5.265926   5.689443   4.464080   6.179545   5.490567
    20  H    3.675564   4.246647   3.548966   4.469975   3.995762
    21  H    4.384559   5.676172   4.738361   5.480012   4.288526
    22  C    4.003030   4.671653   3.166897   5.133705   4.243643
    23  C    5.363559   6.173457   4.499142   6.581842   5.420469
    24  H    4.295048   4.258165   2.510374   5.237751   4.775941
    25  H    3.835894   4.671959   3.582235   4.873590   4.023429
    26  H    6.116906   6.693915   5.022110   7.245768   6.228545
    27  H    5.846037   6.484441   4.606506   7.076430   5.946627
    28  H    5.481018   6.744536   5.254494   6.779458   5.318095
                   11         12         13         14         15
    11  C    0.000000
    12  H    2.158767   0.000000
    13  H    2.157210   4.304172   0.000000
    14  H    1.086620   2.486282   2.487363   0.000000
    15  C    5.451325   5.298976   6.113046   6.489014   0.000000
    16  C    5.562568   5.641289   6.025346   6.522443   1.533900
    17  H    5.300285   4.723967   6.337558   6.286346   1.098239
    18  H    6.492332   6.296730   7.069182   7.543291   1.096287
    19  H    6.365436   6.193968   6.978001   7.270913   2.171939
    20  H    4.717033   4.898478   5.238417   5.612335   2.186742
    21  H    6.044288   6.439589   6.127599   7.010854   2.182656
    22  C    5.410231   5.317531   6.027164   6.444582   2.937276
    23  C    6.928977   6.777404   7.428709   7.972299   3.478574
    24  H    5.224522   4.712220   6.224985   6.205913   3.056343
    25  H    5.227041   5.366038   5.675440   6.211270   3.864909
    26  H    7.497910   7.202032   8.095926   8.496006   4.455191
    27  H    7.350667   7.020842   7.972330   8.403892   3.112316
    28  H    7.327971   7.462193   7.516896   8.384976   3.872452
                   16         17         18         19         20
    16  C    0.000000
    17  H    2.180023   0.000000
    18  H    2.171797   1.762428   0.000000
    19  H    1.095377   2.510536   2.510686   0.000000
    20  H    1.094820   2.548400   3.089578   1.770036   0.000000
[...]
 01170473,-0.05177937,0.00025219,0.00324976,-0.00503667,0.00031409,-0.0
 0055183,0.00112633,0.02387019,-0.01113207,0.00387339,-0.00018967,-0.00
 051545,-0.00085122,0.02651587,-0.01685850,0.05683654,0.00157009,0.0060
 8819,-0.00880145,-0.00261216,0.00028678,0.00153897,-0.05018622,0.01730
 822,-0.02016475,0.00224824,-0.01380567,0.01424445,0.00079571,-0.001531
 09,-0.00005715,-0.00325255,0.00116316,0.00116213,0.00046292,0.00024547
 ,-0.00050155,-0.00032807,0.00018070,0.00041218,-0.00045924,-0.00068150
 ,-0.00125156,0.00011450,-0.00039988,0.00033650,0.00003498,-0.00070103,
 0.00009531,-0.00013535,0.00000928,-0.00005115,-0.00027974,-0.00023571,
 -0.00014201,-0.00001975,-0.00001469,0.00006004,0.00152929,-0.00117070,
 0.00329632,-0.00042888,0.00065570,0.00011252,0.00023539,-0.00081829,-0
 .00001443,-0.00022988,0.00016199,0.00003495,0.00034289,-0.00021415,0.0
 0025053,0.00003254,0.00006818,-0.00013349,0.00033533,-0.00017064,0.000
 28487,0.50971806,0.00021922,-0.00170157,0.00463352,0.00071418,-0.00013
 691,-0.00075643,0.00705049,-0.08223403,0.04301638,-0.00060164,-0.00946
 633,0.00776828,0.00084038,-0.00022177,0.00074989,-0.00151467,0.0003464
 4,0.00122954,0.00024315,-0.00021176,-0.00026682,0.00008367,-0.00011990
 ,-0.00036907,-0.00041292,-0.00029943,-0.00104542,-0.00006709,0.0000327
 1,0.00049910,0.00009752,-0.00023007,-0.00001304,-0.00004974,0.00002888
 ,0.00003775,-0.00011876,-0.00010205,-0.00011466,-0.00005045,-0.0000446
 6,0.00010571,-0.00048074,0.01227956,-0.01073131,0.00075603,-0.00444892
 ,-0.00293704,0.00005575,0.00054667,0.00020929,-0.00045484,0.00014653,0
 .00081736,-0.00000702,0.00084959,-0.00165068,0.00009306,0.00003610,0.0
 0009116,-0.00017416,0.00002435,0.00011060,-0.03565964,0.45719121,-0.00
 042018,-0.00045369,0.00293455,0.00096830,-0.00035986,-0.00056411,-0.00
 548745,0.03485664,-0.09362917,0.00144216,-0.00073474,0.00409760,-0.000
 25250,-0.00046554,-0.00011631,-0.00103932,-0.00108682,-0.00065189,-0.0
 0018994,-0.00012107,-0.00015297,-0.00012678,0.00018039,0.00007379,0.00
 013972,0.00009165,-0.00060338,-0.00012554,0.00001644,0.00036784,-0.000
 33750,-0.00001719,0.00005087,-0.00007550,-0.00001652,-0.00003357,-0.00
 006860,-0.00009794,0.00003722,-0.00003459,-0.00000100,0.00006671,-0.00
 251021,0.01500076,-0.01343338,0.00052860,-0.00514572,-0.00244582,0.000
 05023,0.00093264,0.00162820,-0.00070374,0.00012522,0.00095169,-0.00012
 190,0.00130345,-0.00132982,0.00020624,0.00009932,0.00002346,-0.0001935
 5,0.00005395,-0.00014158,-0.01182736,0.09284836,0.45686745,0.00017568,
 0.00086813,-0.00064902,-0.00023787,-0.00012653,0.00016698,0.00405944,-
 0.00308216,0.00597779,-0.00039978,0.00213229,-0.00251567,-0.00032215,0
 .00037367,0.00013685,0.00078219,0.00004350,0.00001309,0.00002838,-0.00
 003442,0.00019764,0.00011336,-0.00022616,-0.00022488,-0.00003622,0.000
 02143,0.00030548,0.00002634,0.00002080,-0.00013253,0.00011090,0.000060
 37,-0.00003186,0.00005734,0.00001082,-0.00000458,0.00006267,0.00006764
 ,0.00000896,0.00002122,-0.00000117,-0.00004110,-0.00013449,0.00086897,
 -0.00026230,0.00014642,-0.00044396,-0.00018574,0.00009464,0.00003270,0
 .00000205,-0.00007677,-0.00002930,0.00009854,-0.00000329,0.00008489,-0
 .00016073,0.00000054,0.00000132,0.00005013,-0.00001098,-0.00000043,0.0
 0002167,-0.14192161,-0.05103631,0.00208604,0.51977402,0.00044829,-0.00
 033241,0.00002947,-0.00023163,0.00003924,0.00005217,-0.01062913,-0.015
 18912,0.00615496,0.00055723,-0.00104558,0.00205616,0.00043196,-0.00030
 846,-0.00021144,-0.00058617,0.00006517,0.00010481,-0.00020634,-0.00005
 657,-0.00029510,-0.00022583,0.00019238,0.00037779,0.00005720,-0.000012
 52,-0.00022234,-0.00000355,-0.00003519,0.00007702,-0.00008121,0.000045
 78,0.00005999,-0.00002961,-0.00001257,-0.00002912,-0.00004178,-0.00003
 327,-0.00000337,-0.00000526,0.00001618,0.00004889,0.00096751,0.0014412
 2,-0.00009944,-0.00028125,-0.00060203,-0.00044902,-0.00015394,-0.00004
 856,0.00012211,-0.00065468,-0.00024175,-0.00023728,0.00005170,0.000121
 69,-0.00013123,0.00004360,-0.00007260,0.00016562,0.00004410,-0.0000028
 5,0.00003815,-0.05900158,-0.12675533,-0.00393188,-0.05603009,0.5299383
 0,-0.00019170,-0.00009696,-0.00004619,-0.00015598,0.00019969,-0.000000
 60,0.01538572,0.01409885,-0.00148823,-0.00094926,0.00308300,-0.0038138
 2,-0.00009142,0.00049851,0.00018028,0.00123114,0.00007110,-0.00014410,
 0.00001340,-0.00003748,0.00023008,-0.00000459,-0.00013546,-0.00009533,
 0.00003343,0.00018850,0.00047656,-0.00005449,0.00003348,-0.00021514,0.
 00008030,0.00016337,-0.00005131,0.00008316,0.00001489,0.00000391,0.000
 09742,0.00009749,0.00003484,0.00002829,0.00001421,-0.00004022,-0.00020
 908,-0.00063802,0.00030161,-0.00010104,-0.00002747,0.00008083,0.000168
 46,0.00007658,-0.00003923,-0.00004882,0.00021960,-0.00088988,-0.000002
 14,-0.00004115,-0.00002278,-0.00003466,-0.00008607,0.00010406,0.000004
 51,0.00000327,0.00004760,0.01014487,0.00347400,-0.07539606,0.00879564,
 0.00982899,0.57471790,0.00015207,0.00019425,-0.00007379,0.00001951,-0.
 00003675,-0.00000088,-0.00255599,0.00140183,0.00043091,0.00024458,0.00
 000200,-0.00053126,-0.00026769,-0.00002883,0.00041622,0.00002255,0.000
 00270,-0.00002265,0.00011299,-0.00009636,0.00001962,-0.00014295,-0.000
 53485,0.00028074,0.00004435,-0.00001505,0.00005800,0.00001156,-0.00002
 073,-0.00002721,-0.00000950,0.00001354,-0.00003681,0.00001476,0.000008
 01,0.00002891,0.00000759,0.00000696,-0.00001352,-0.00000133,-0.0000142
 0,-0.00000212,0.00019111,-0.00019550,0.00007307,0.00028579,-0.00011595
 ,-0.00010337,0.00026925,-0.00015267,-0.00054002,-0.00000243,0.00004892
 ,0.00003714,0.00000077,0.00000744,-0.00002566,-0.00001805,-0.00001204,
 0.00002308,-0.00002862,-0.00004793,0.00015627,-0.24862675,0.10777644,0
 .02340808,-0.02153108,0.01090160,0.00226589,0.27110923,-0.00055276,-0.
 00078859,0.00233111,0.00070266,-0.00016148,-0.00044799,0.01448906,-0.0
 0954824,0.00006428,-0.00004574,0.00088115,-0.00013440,0.00025858,-0.00
 071573,-0.00037850,-0.00003835,-0.00037647,-0.00021874,-0.00052995,-0.
 00002133,-0.00019918,-0.00042407,0.00020485,0.00081925,0.00020319,0.00
 022120,0.00001664,-0.00004032,0.00014830,0.00006233,-0.00015995,0.0002
 3915,0.00006810,-0.00001894,-0.00003202,0.00000138,0.00000825,0.000016
 57,0.00000727,-0.00000989,0.00005191,0.00004182,-0.00077320,0.00059885
 ,-0.00119442,-0.00012256,-0.00013705,-0.00005088,-0.00026547,0.0005469
 9,0.00052785,-0.00006557,-0.00002464,-0.00001156,-0.00005397,0.0000632
 2,-0.00003338,0.00001379,-0.00002478,0.00001568,-0.00005533,0.00004355
 ,-0.00018030,0.11182016,-0.10496814,-0.01586886,-0.02230985,0.01143927
 ,0.00253533,-0.11462701,0.11199936,0.00088232,0.00142792,-0.00207165,-
 0.00090274,0.00011766,0.00043348,-0.01856682,0.01306821,-0.00226787,0.
 00031942,-0.00146783,0.00035932,-0.00014471,0.00058919,-0.00000374,-0.
 00010908,0.00030152,0.00024945,0.00029132,-0.00005332,0.00001433,0.000
 51840,0.00021214,-0.00037169,-0.00014071,-0.00017345,-0.00001575,0.000
 00853,-0.00012577,-0.00006282,0.00006901,-0.00019822,-0.00000007,0.000
 00257,0.00002038,0.00000881,-0.00002247,-0.00001409,-0.00002186,0.0000
 1267,-0.00003038,-0.00002682,-0.00023057,-0.00067544,0.00175020,0.0001
 1683,0.00033441,-0.00002567,0.00054658,-0.00040032,-0.00041226,-0.0000
 2136,0.00000699,-0.00013440,0.00007469,-0.00013334,0.00010723,-0.00003
 820,-0.00001491,0.00004159,0.00017548,-0.00014542,0.00016466,0.0157352
 4,-0.01180941,-0.04726554,0.00209471,-0.00124020,-0.00029647,-0.025963
 88,0.01283126,0.05015790,-0.00015841,0.00007422,0.00014164,0.00006846,
 -0.00004875,0.00000534,-0.00089353,-0.00141939,-0.00309894,0.00003726,
 0.00007134,0.00020637,-0.00017385,0.00029169,0.00004252,-0.00000064,-0
 .00014395,-0.00001264,-0.00006482,-0.00017466,-0.00011647,0.00012106,-
 0.00002319,0.00005685,0.00005938,0.00001314,-0.00001843,-0.00000660,-0
 .00000131,0.00004871,-0.00008112,0.00005203,-0.00000303,-0.00000734,0.
 00000031,0.00001300,0.00000422,0.00000260,-0.00000083,-0.00000112,-0.0
 0001154,0.00001876,0.00006664,0.00048677,0.00019021,0.00034100,-0.0001
 6751,-0.00015411,0.00019343,-0.00017726,-0.00030740,-0.00000597,0.0000
 5161,0.00020238,-0.00000310,0.00004097,-0.00004681,-0.00000998,0.00001
 796,-0.00001392,-0.00000527,-0.00003573,0.00006525,-0.04790344,-0.0043
 7909,-0.00809852,-0.00177282,-0.01516852,-0.02175073,0.00125775,0.0150
 0985,0.02526037,0.05073704,-0.00008069,-0.00008260,-0.00066507,-0.0000
 2215,0.00003509,0.00010503,-0.00012102,0.00927407,0.01533323,0.0003590
 5,0.00074770,-0.00065800,-0.00003265,-0.00000099,-0.00003501,0.0000861
 3,0.00000827,-0.00013031,-0.00001041,0.00009966,0.00004321,0.00000244,
 -0.00000268,0.00000155,-0.00001356,-0.00007665,0.00008503,-0.00001005,
 -0.00007364,0.00001374,0.00005945,-0.00000492,0.00000549,0.00000796,-0
 .00000882,-0.00000035,-0.00000373,0.00000391,0.00001180,0.00000693,0.0
 0000384,-0.00001327,0.00040558,-0.00425892,0.00297000,-0.00029080,0.00
 163654,0.00114895,-0.00018667,-0.00008098,-0.00016182,0.00019217,-0.00
 003335,-0.00013800,0.00003627,-0.00035075,0.00057529,-0.00002035,0.000
 00481,-0.00006438,0.00004425,-0.00001171,-0.00004894,-0.00282622,-0.12
 393827,-0.12083722,-0.00184478,-0.01313168,-0.01872057,-0.00065740,-0.
 00836656,-0.01336922,0.00783269,0.13934885,0.00009353,0.00031529,0.001
 02741,-0.00001499,-0.00004494,-0.00013376,0.00056669,-0.01066348,-0.01
 806723,-0.00051543,-0.00033825,0.00114821,0.00042138,-0.00015975,0.000
 21372,0.00008681,0.00032180,0.00025478,-0.00000392,-0.00005731,-0.0001
 0460,-0.00008413,0.00004793,0.00000414,-0.00003658,0.00010251,-0.00012
 043,-0.00001359,0.00000483,0.00001614,-0.00001638,0.00002389,-0.000006
 62,-0.00000684,0.00000735,-0.00001570,0.00000813,-0.00000283,-0.000011
 57,-0.00000954,-0.00000140,0.00002986,-0.00082949,0.00448215,-0.002921
 67,0.00017649,-0.00169742,-0.00075803,-0.00001168,0.00024173,0.0004931
 4,-0.00012933,0.00005095,0.00033316,0.00000183,0.00034984,-0.00051388,
 0.00004385,0.00004385,0.00001229,-0.00004330,0.00002186,-0.00000406,-0
 .00692007,-0.12877808,-0.23435612,-0.00003886,0.00265729,0.00408267,0.
 00014545,-0.00067561,-0.00135648,0.00679857,0.13306508,0.24863602,0.00
 018921,0.00022725,0.00000081,0.00002579,-0.00000411,-0.00001751,-0.003
 59162,-0.00151279,-0.00085100,0.00044326,-0.00116640,0.00108774,0.0001
 4599,-0.00010983,-0.00003884,-0.00042190,-0.00000592,0.00006120,0.0000
 2587,-0.00001982,-0.00006927,0.00000312,0.00005312,0.00004671,-0.00001
 220,-0.00004737,-0.00016904,-0.00002492,-0.00002444,0.00006656,-0.0000
 3733,-0.00005401,0.00001294,-0.00002424,-0.00000090,0.00000213,-0.0000
 3171,-0.00003123,-0.00000939,-0.00000790,-0.00000408,0.00001674,0.0001
 6394,-0.00014304,0.00002269,0.00000326,0.00012605,0.00006630,0.0000000
 2,-0.00002959,-0.00001976,-0.00003175,0.00007345,0.00011589,0.00000483
 ,-0.00001183,0.00004904,0.00001652,0.00001448,-0.00003612,0.00000371,-
 0.00001199,0.00000013,0.00126727,-0.01741017,0.02127444,-0.05292834,0.
 02387694,-0.03124910,0.00093440,0.00077141,0.00026063,0.00115118,0.000
 88343,-0.00019564,0.05643658,-0.00012644,0.00000531,0.00008037,0.00020
 130,-0.00010155,-0.00003185,-0.00296172,-0.00082607,-0.00185852,0.0002
 2512,-0.00063633,0.00113211,0.00004359,-0.00020389,-0.00002169,-0.0003
 5166,0.00006248,0.00007642,-0.00001305,-0.00000430,-0.00008947,0.00001
 233,0.00003700,0.00004576,-0.00001413,-0.00003600,-0.00013470,0.000029
 04,0.00000224,0.00005881,-0.00003711,-0.00003940,0.00001010,-0.0000392
 5,-0.00000757,-0.00000028,-0.00003054,-0.00003584,-0.00000926,-0.00001
 553,-0.00001022,0.00001670,-0.00009872,-0.00015541,-0.00007034,0.00008
 974,0.00019582,0.00013987,0.00000639,-0.00000855,0.00002302,0.00014368
 ,0.00011892,0.00026238,0.00000044,-0.00002393,0.00006219,0.00000088,0.
 00003169,-0.00008283,-0.00000620,-0.00000707,-0.00002245,0.00115820,-0
 .01488108,0.01722614,0.02377869,-0.13652332,0.12340735,0.00017354,0.00
 089755,-0.00028992,0.00083682,0.00043730,-0.00013967,-0.02162648,0.147
 28240,0.00012624,0.00010751,0.00001653,-0.00009615,0.00003072,0.000002
 02,-0.00003305,-0.00130923,0.00099400,-0.00014474,0.00000755,0.0001422
 8,-0.00001245,0.00007922,-0.00001033,0.00007501,-0.00005373,-0.0000495
 7,-0.00000688,-0.00000308,-0.00000358,-0.00002297,-0.00000080,-0.00000
 133,0.00002742,0.00001499,-0.00000490,-0.00000391,-0.00001407,0.000001
 96,-0.00001055,0.00001208,0.00000237,0.00001395,0.00000398,-0.00000092
 ,0.00000730,0.00000731,0.00000580,0.00000609,0.00000491,-0.00000046,-0
 .00028264,-0.00013123,-0.00003841,0.00012871,0.00011309,0.00011850,0.0
 0003865,0.00002654,0.00001368,0.00017782,0.00016584,0.00024564,-0.0000
 0416,-0.00001202,-0.00000179,0.00000119,0.00004782,-0.00007870,-0.0000
 0766,0.00000045,-0.00001078,0.00056540,0.00047807,-0.00020785,-0.03113
 774,0.12352946,-0.22156846,0.00037101,-0.00003461,-0.00001006,0.000278
 21,-0.00001912,0.00082170,0.03430996,-0.13568671,0.23689488,0.00002524
 ,-0.00012553,0.00012566,0.00000432,0.00000730,-0.00004963,0.00028993,0
 .00006281,-0.00090042,-0.00006238,0.00009154,0.00012126,0.00004873,-0.
 00005070,0.00001873,0.00002464,0.00005150,0.00000929,0.00000276,0.0000
 0530,-0.00000220,-0.00001866,-0.00000696,-0.00000524,-0.00000521,0.000
 02317,-0.00000404,-0.00000342,0.00000346,-0.00000572,-0.00000194,0.000
 00336,-0.00000217,-0.00000460,-0.00000219,-0.00000282,0.00000185,0.000
 00007,0.00000113,-0.00000141,0.00000056,0.00000170,0.00006340,-0.00014
 857,-0.00008231,-0.00001871,0.00012789,0.00018058,-0.00023809,-0.00002
 924,0.00010144,0.00024290,-0.00006817,0.00027550,0.00001083,-0.0000265
 3,0.00003074,0.00000200,0.00002990,-0.00005589,-0.00001054,0.00004492,
 -0.00004871,-0.00075064,-0.01521174,-0.02139934,-0.05043641,-0.0035119
 6,-0.00570238,0.00091664,0.00081003,-0.00037727,-0.00364201,-0.0040110
 9,0.00087357,-0.00091864,-0.00309089,-0.00434029,0.05157944,0.00004046
 ,0.00015149,0.00026272,0.00000452,-0.00000646,-0.00001574,-0.00032405,
 -0.00081038,-0.00240648,-0.00012822,0.00003909,0.00035562,0.00004529,0
 .00002844,0.00006287,0.00007137,0.00004158,0.00003381,0.00001450,-0.00
 001863,-0.00001137,-0.00000832,-0.00001245,-0.00003431,-0.00000394,0.0
 0003308,-0.00002767,-0.00000801,-0.00000556,0.00000270,-0.00000337,0.0
 0000467,-0.00000184,0.00000373,0.00000421,-0.00000401,0.00000675,0.000
 00397,-0.00000348,-0.00000003,-0.00000030,0.00000302,-0.00064661,-0.00
 028053,-0.00027177,0.00032456,0.00028469,0.00031784,0.00001495,0.00002
 888,0.00008182,0.00029770,0.00032672,0.00094094,-0.00001520,-0.0000336
 4,0.00002408,0.00000841,0.00010634,-0.00019156,-0.00002562,-0.00000513
 ,-0.00003864,0.00002063,-0.01344357,-0.01669777,-0.00413416,-0.1409465
 8,-0.12536550,0.00020647,0.00091765,0.00053193,-0.00368921,-0.00208009
 ,0.00098243,0.00040365,0.01317979,0.01576789,0.00856538,0.15146752,-0.
 00003813,-0.00006323,0.00007914,0.00008094,-0.00002765,0.00000797,-0.0
 0030740,0.00058660,-0.00006602,0.00004132,-0.00014958,0.00018092,0.000
 00198,-0.00007124,0.00000036,-0.00008557,0.00001211,0.00000343,0.00000
 482,0.00000391,-0.00000403,0.00000942,0.00000022,-0.00000699,-0.000008
 97,-0.00001111,-0.00001918,0.00000479,0.00000616,0.00000599,-0.0000029
 7,-0.00001002,0.00000151,-0.00001189,-0.00000308,-0.00000173,-0.000006
 81,-0.00000814,-0.00000351,-0.00000440,-0.00000301,-0.00000027,-0.0000
 2565,-0.00016916,-0.00024879,0.00002365,0.00022936,0.00011279,-0.00002
 187,-0.00004682,0.00002479,0.00055784,0.00055223,-0.00061419,-0.000010
 99,-0.00003386,0.00006736,-0.00000935,0.00001961,-0.00004678,-0.000002
 80,0.00000256,-0.00002363,-0.00044941,0.00297830,0.00457828,-0.0064473
 7,-0.12601654,-0.22306595,-0.00062412,-0.00028315,0.00018796,0.0007601
 1,0.00111662,0.00118389,0.00012596,-0.01637695,-0.02102276,0.00618851,
 0.13796536,0.24052285,0.00013029,0.00002060,0.00006448,-0.00011450,0.0
 0008994,-0.00004355,-0.00090727,0.00132300,-0.00013962,0.00023617,-0.0
 0044274,-0.00017975,0.00006120,0.00023716,0.00008451,-0.00003498,-0.00
 000419,0.00001602,0.00011211,-0.00005691,0.00005033,0.00008255,-0.0000
 6440,-0.00011008,-0.00001321,-0.00002655,-0.00001605,-0.00003901,-0.00
 003261,0.00000444,0.00000798,-0.00002351,-0.00001323,0.00001798,0.0000
 1378,0.00000499,-0.00000118,-0.00000305,-0.00000281,0.00000189,-0.0000
 0879,-0.00000367,0.00016275,-0.00022495,0.00020006,-0.00000247,0.00006
 534,0.00002125,0.00006480,-0.00005539,-0.00014069,-0.00004663,0.000007
 51,0.00001624,0.00000002,-0.00001624,0.00002492,-0.00000383,-0.0000015
 6,0.00000065,0.00000632,-0.00000579,0.00003132,-0.02155292,0.00969908,
 0.00290872,-0.25564131,0.10946241,0.02221317,-0.00241049,-0.00399405,0
 .00014906,0.00069257,0.00021525,-0.00034653,-0.00278442,0.00171198,-0.
 00002376,0.00289995,-0.00104163,0.00025834,0.27907563,0.00035502,-0.00
 012918,-0.00009092,-0.00013801,-0.00001859,0.00001338,-0.00149662,0.00
 090915,0.00013197,0.00008943,0.00002385,-0.00018868,-0.00014790,0.0001
 0264,0.00009622,0.00005591,0.00002610,0.00001936,0.00008059,-0.0000213
 7,0.00004867,0.00006917,-0.00010290,-0.00008075,-0.00001858,-0.0000326
 0,0.00001723,-0.00001189,-0.00003041,-0.00001703,0.00001847,-0.0000219
 3,-0.00001518,0.00001019,0.00000543,-0.00000314,0.00000374,0.00000412,
 -0.00000006,0.00000583,-0.00000736,-0.00000717,0.00006665,-0.00007856,
 0.00005686,0.00001576,0.00004104,0.00004062,-0.00000104,-0.00008629,-0
 .00007725,0.00015606,-0.00004049,-0.00002734,0.00001499,-0.00001819,0.
 00000536,-0.00000294,0.00001130,-0.00001370,0.00001031,0.00000833,0.00
 002292,-0.02193586,0.01172176,0.00310085,0.11093408,-0.10794883,-0.012
 85953,-0.00418844,-0.00310455,0.00069964,0.00065811,0.00090257,-0.0001
 6004,0.01578423,-0.00874997,-0.00313285,0.01645640,-0.00897481,-0.0001
 9950,-0.11684367,0.11560977,-0.00031772,-0.00001042,-0.00004014,0.0001
 8689,-0.00008924,-0.00004740,0.00166423,-0.00053894,0.00010098,-0.0001
 1218,0.00018118,0.00002849,-0.00000227,-0.00008091,-0.00004234,-0.0000
 1114,-0.00003677,-0.00002155,-0.00004498,0.00000786,-0.00001441,-0.000
 01641,0.00001600,0.00002018,-0.00000356,0.00002386,-0.00000502,0.00001
 906,0.00003764,0.00001914,-0.00001775,0.00000994,0.00000090,-0.0000141
 5,-0.00000626,0.00000194,-0.00000133,-0.00000630,0.00000354,-0.0000076
 0,-0.00000037,0.00000428,-0.00015929,0.00015581,-0.00024182,0.00001554
 ,0.00001158,0.00003552,-0.00012876,-0.00000814,0.00011090,0.00011028,-
 0.00009842,0.00008455,-0.00000424,0.00000572,0.00000834,-0.00000052,0.
 00000936,-0.00001608,-0.00001291,0.00002200,-0.00004008,0.00204013,-0.
 00057535,-0.00135008,0.02187681,-0.01243592,-0.05308661,0.00025091,0.0
 0038927,0.00086822,-0.00046642,0.00038626,0.00011302,-0.02486420,0.012
 27342,0.00375055,0.02505035,-0.01226289,-0.00183340,-0.02502878,0.0126
 2005,0.05158838\\0.00000697,-0.00000758,0.00000280,-0.00000853,0.00000
 559,0.00000297,-0.00000474,0.00000913,-0.00000078,0.00000493,0.0000111
 6,0.00000296,0.00000458,-0.00000544,0.00000227,-0.00000437,-0.00000582
 ,-0.00000030,-0.00000183,-0.00000349,-0.00000173,-0.00000064,0.0000003
 6,-0.00000167,0.00000479,0.00000017,-0.00000014,-0.00000003,-0.0000003
 4,0.00000206,-0.00000144,0.00000168,0.00000129,0.00000059,-0.00000045,
 -0.00000145,-0.00000004,-0.00000009,0.00000164,0.00000006,-0.00000053,
 0.00000063,0.00000204,-0.00000959,-0.00000907,-0.00000169,0.00000678,-
 0.00000378,-0.00000093,0.00000410,-0.00000116,-0.00000244,0.00000243,0
 .00000186,-0.00000194,0.00000122,0.00000104,-0.00000045,0.00000083,0.0
 0000164,-0.00000075,0.00000132,0.00000115,0.00000749,-0.00000512,0.000
 00833,-0.00000573,-0.00000477,-0.00000155,-0.00000283,-0.00000210,-0.0
 0000396,0.00000128,0.00000013,-0.00000208,0.00000178,0.00000081,-0.000
 00056,0.00000255,0.00000045,-0.00000184,0.00000131,-0.00000083,-0.0000
 0058\\\@


 NOTHING WILL BE ATTEMPTED IF ALL POSSIBLE OBJECTIONS
 MUST FIRST BE OVERCOME.

                               -- THE GOLDEN PRINCIPLE,
                    PAUL DICKSON'S "THE OFFICIAL RULES"
 Job cpu time:       0 days  0 hours 37 minutes 47.8 seconds.
 File lengths (MBytes):  RWF=    230 Int=      0 D2E=      0 Chk=      6 Scr=      1
 Normal termination of Gaussian 09 at Wed May 17 09:35:23 2023.
