 Entering Gaussian System, Link 0=g09
 Input=au-1to3-ts-2-af57-cterm-se-wat-ts-p.com
 Output=au-1to3-ts-2-af57-cterm-se-wat-ts-p.log
 Initial command:
 /home/scr/programs/g09/l1.exe "/home/scr/guest2/Gau-15786.inp" -scrdir="/home/scr/guest2/"
 Entering Link 1 = /home/scr/programs/g09/l1.exe PID=     15787.
  
 Copyright (c) 1988,1990,1992,1993,1995,1998,2003,2009,2013,
            Gaussian, Inc.  All Rights Reserved.
  
 This is part of the Gaussian(R) 09 program.  It is based on
 the Gaussian(R) 03 system (copyright 2003, Gaussian, Inc.),
 the Gaussian(R) 98 system (copyright 1998, Gaussian, Inc.),
 the Gaussian(R) 94 system (copyright 1995, Gaussian, Inc.),
 the Gaussian 92(TM) system (copyright 1992, Gaussian, Inc.),
 the Gaussian 90(TM) system (copyright 1990, Gaussian, Inc.),
 the Gaussian 88(TM) system (copyright 1988, Gaussian, Inc.),
 the Gaussian 86(TM) system (copyright 1986, Carnegie Mellon
 University), and the Gaussian 82(TM) system (copyright 1983,
 Carnegie Mellon University). Gaussian is a federally registered
 trademark of Gaussian, Inc.
  
 This software contains proprietary and confidential information,
 including trade secrets, belonging to Gaussian, Inc.
  
 This software is provided under written license and may be
 used, copied, transmitted, or stored only in accord with that
 written license.
  
 The following legend is applicable only to US Government
 contracts under FAR:
  
                    RESTRICTED RIGHTS LEGEND
  
 Use, reproduction and disclosure by the US Government is
 subject to restrictions as set forth in subparagraphs (a)
 and (c) of the Commercial Computer Software - Restricted
 Rights clause in FAR 52.227-19.
  
 Gaussian, Inc.
 340 Quinnipiac St., Bldg. 40, Wallingford CT 06492
  
  
 ---------------------------------------------------------------
 Warning -- This program may not be used in any manner that
 competes with the business of Gaussian, Inc. or will provide
 assistance to any competitor of Gaussian, Inc.  The licensee
 of this program is prohibited from giving any competitor of
 Gaussian, Inc. access to this program.  By using this program,
 the user acknowledges that Gaussian, Inc. is engaged in the
 business of creating and licensing software in the field of
 computational chemistry and represents and warrants to the
 licensee that it is not a competitor of Gaussian, Inc. and that
 it will not use this program in any manner prohibited above.
 ---------------------------------------------------------------
  

 Cite this work as:
 Gaussian 09, Revision D.01,
 M. J. Frisch, G. W. Trucks, H. B. Schlegel, G. E. Scuseria, 
 M. A. Robb, J. R. Cheeseman, G. Scalmani, V. Barone, B. Mennucci, 
 G. A. Petersson, H. Nakatsuji, M. Caricato, X. Li, H. P. Hratchian, 
 A. F. Izmaylov, J. Bloino, G. Zheng, J. L. Sonnenberg, M. Hada, 
 M. Ehara, K. Toyota, R. Fukuda, J. Hasegawa, M. Ishida, T. Nakajima, 
 Y. Honda, O. Kitao, H. Nakai, T. Vreven, J. A. Montgomery, Jr., 
 J. E. Peralta, F. Ogliaro, M. Bearpark, J. J. Heyd, E. Brothers, 
 K. N. Kudin, V. N. Staroverov, T. Keith, R. Kobayashi, J. Normand, 
 K. Raghavachari, A. Rendell, J. C. Burant, S. S. Iyengar, J. Tomasi, 
 M. Cossi, N. Rega, J. M. Millam, M. Klene, J. E. Knox, J. B. Cross, 
 V. Bakken, C. Adamo, J. Jaramillo, R. Gomperts, R. E. Stratmann, 
 O. Yazyev, A. J. Austin, R. Cammi, C. Pomelli, J. W. Ochterski, 
 R. L. Martin, K. Morokuma, V. G. Zakrzewski, G. A. Voth, 
 P. Salvador, J. J. Dannenberg, S. Dapprich, A. D. Daniels, 
 O. Farkas, J. B. Foresman, J. V. Ortiz, J. Cioslowski, 
 and D. J. Fox, Gaussian, Inc., Wallingford CT, 2013.
 
 ******************************************
 Gaussian 09:  EM64L-G09RevD.01 24-Apr-2013
                18-May-2023 
 ******************************************
 %mem=50000MB
 %nprocshared=15
 Will use up to   15 processors via shared memory.
 ----------------------------------------
 # opt freq=noraman b3lyp/gen pseudo=read
 ----------------------------------------
 1/14=-1,18=20,19=15,26=3,38=1/1,3;
 2/9=110,12=2,17=6,18=5,40=1/2;
 3/5=7,11=2,16=1,17=8,25=1,30=1,71=1,74=-5/1,2,3;
 4//1;
 5/5=2,38=5/2;
 6/7=2,8=2,9=2,10=2,28=1/1;
 7//1,2,3,16;
 1/14=-1,18=20,19=15,26=3/3(2);
 2/9=110/2;
 99//99;
 2/9=110/2;
 3/5=7,6=1,11=2,16=1,17=8,25=1,30=1,71=1,74=-5,82=7/1,2,3;
 4/5=5,16=3,69=1/1;
 5/5=2,38=5/2;
 7//1,2,3,16;
 1/14=-1,18=20,19=15,26=3/3(-5);
 2/9=110/2;
 6/7=2,8=2,9=2,10=2,19=2,28=1/1;
 99/9=1/99;
 -------------------
 Title Card Required
 -------------------
 Symbolic Z-matrix:
 Charge =  0 Multiplicity = 1
 Au                   -3.12799  -0.21853   0.0803 
 C                    -6.19138   1.10376  -1.26989 
 H                    -6.77054   1.19135  -0.34416 
 H                    -6.0918    0.04202  -1.49859 
 C                    -4.71392   2.7574    0.58401 
 H                    -3.69926   2.87024   0.99117 
 H                    -5.30572   2.1872    1.30658 
 C                    -6.82989   1.86817  -2.43789 
 H                    -6.94389   2.93295  -2.22182 
 H                    -6.2332    1.75641  -3.3507 
 H                    -7.827     1.44431  -2.63674 
 C                    -5.33988   4.10797   0.26413 
 H                    -5.38557   4.70856   1.17986 
 H                    -4.74934   4.66193  -0.47224 
 H                    -6.35797   4.00818  -0.1124 
 N                     7.88768   2.9373   -0.57929 
 C                     6.46331   2.61693  -0.64995 
 C                     6.13888   1.25705  -0.02979 
 O                     6.85924   0.2945   -0.32644 
 C                     6.05399   2.57563  -2.14944 
 O                     4.7459    2.10405  -2.35263 
 N                     5.09508   1.08975   0.82959 
 C                     4.17768   2.07489   1.39738 
 C                     2.9491    2.35291   0.52293 
 O                     3.03197   3.18058  -0.39409 
 N                     1.75899   1.71222   0.76483 
 C                     1.34437   0.79605   1.83029 
 C                     1.58981  -0.70716   1.55182 
 O                     1.91005  -1.44937   2.47276 
 C                    -0.14507   1.0612    2.26396 
 S                    -1.44449   1.50284   0.91655 
 N                     1.38292  -1.12976   0.26408 
 C                     0.90136  -2.49591   0.02629 
 C                    -0.62503  -2.55676  -0.19986 
 C                     1.59841  -3.0928   -1.2193 
 O                     1.01999  -3.09795  -2.30259 
 N                     2.8342   -3.6445   -1.05778 
 C                     3.77939  -3.38304   0.01824 
 C                     4.92536  -2.52619  -0.5056 
 O                     5.23616  -2.47236  -1.67687 
 O                     5.56482  -1.87176   0.48218 
 H                     6.22828   3.57378  -2.56709 
 H                     6.71905   1.87631  -2.66552 
 H                     4.12575   2.69304  -1.8786 
 H                     5.90482   3.4242   -0.1679 
 H                     8.4116    2.11254  -0.87259 
 H                     8.16339   3.12083   0.38415 
 H                     4.68657   3.03168   1.51515 
 H                     3.90232   1.72437   2.39672 
 H                     4.94433   0.1188    1.10025 
 H                    -0.12781   2.00995   2.83326 
 H                    -0.47271   0.24797   2.92535 
 H                     1.93402   0.99761   2.74217 
 H                     1.01599   2.00396   0.12635 
 H                    -0.93697  -3.59121  -0.36574 
 H                    -0.87505  -2.0055   -1.10861 
 H                     1.1739   -3.06589   0.91789 
 H                     1.05695  -0.43518  -0.39809 
 H                     4.20877  -4.33118   0.39106 
 H                     3.29894  -2.9       0.87002 
 H                     3.27425  -3.86424  -1.94722 
 H                     6.22712  -1.23936   0.0813 
 Se                   -1.60561  -1.75713   1.32111 
 Cl                   -4.46034  -1.88167  -1.07435 
 S                    -4.48225   1.68166  -0.90363 
 

 GradGradGradGradGradGradGradGradGradGradGradGradGradGradGradGradGradGrad
 Berny optimization.
 Initialization pass.
                           ----------------------------
                           !    Initial Parameters    !
                           ! (Angstroms and Degrees)  !
 --------------------------                            --------------------------
 ! Name  Definition              Value          Derivative Info.                !
 --------------------------------------------------------------------------------
 ! R1    R(1,31)                 2.5488         estimate D2E/DX2                !
 ! R2    R(1,63)                 2.4949         estimate D2E/DX2                !
 ! R3    R(1,64)                 2.4237         estimate D2E/DX2                !
 ! R4    R(1,65)                 2.5324         estimate D2E/DX2                !
 ! R5    R(2,3)                  1.0955         estimate D2E/DX2                !
 ! R6    R(2,4)                  1.0906         estimate D2E/DX2                !
 ! R7    R(2,8)                  1.535          estimate D2E/DX2                !
 ! R8    R(2,65)                 1.841          estimate D2E/DX2                !
 ! R9    R(5,6)                  1.0991         estimate D2E/DX2                !
 ! R10   R(5,7)                  1.0943         estimate D2E/DX2                !
 ! R11   R(5,12)                 1.5226         estimate D2E/DX2                !
 ! R12   R(5,65)                 1.8504         estimate D2E/DX2                !
 ! R13   R(8,9)                  1.0924         estimate D2E/DX2                !
 ! R14   R(8,10)                 1.0962         estimate D2E/DX2                !
 ! R15   R(8,11)                 1.1016         estimate D2E/DX2                !
 ! R16   R(12,13)                1.0961         estimate D2E/DX2                !
 ! R17   R(12,14)                1.0945         estimate D2E/DX2                !
 ! R18   R(12,15)                1.0901         estimate D2E/DX2                !
 ! R19   R(16,17)                1.4617         estimate D2E/DX2                !
 ! R20   R(16,46)                1.0202         estimate D2E/DX2                !
 ! R21   R(16,47)                1.0188         estimate D2E/DX2                !
 ! R22   R(17,18)                1.5294         estimate D2E/DX2                !
 ! R23   R(17,20)                1.5549         estimate D2E/DX2                !
 ! R24   R(17,45)                1.0936         estimate D2E/DX2                !
 ! R25   R(18,19)                1.2383         estimate D2E/DX2                !
 ! R26   R(18,22)                1.3624         estimate D2E/DX2                !
 ! R27   R(20,21)                1.4053         estimate D2E/DX2                !
 ! R28   R(20,42)                1.096          estimate D2E/DX2                !
 ! R29   R(20,43)                1.0944         estimate D2E/DX2                !
 ! R30   R(21,44)                0.9779         estimate D2E/DX2                !
 ! R31   R(22,23)                1.461          estimate D2E/DX2                !
 ! R32   R(22,50)                1.0192         estimate D2E/DX2                !
 ! R33   R(23,24)                1.5334         estimate D2E/DX2                !
 ! R34   R(23,48)                1.0901         estimate D2E/DX2                !
 ! R35   R(23,49)                1.0942         estimate D2E/DX2                !
 ! R36   R(24,25)                1.2381         estimate D2E/DX2                !
 ! R37   R(24,26)                1.3731         estimate D2E/DX2                !
 ! R38   R(26,27)                1.4651         estimate D2E/DX2                !
 ! R39   R(26,54)                1.0222         estimate D2E/DX2                !
 ! R40   R(27,28)                1.5484         estimate D2E/DX2                !
 ! R41   R(27,30)                1.5738         estimate D2E/DX2                !
 ! R42   R(27,53)                1.1045         estimate D2E/DX2                !
 ! R43   R(28,29)                1.2254         estimate D2E/DX2                !
 ! R44   R(28,32)                1.371          estimate D2E/DX2                !
 ! R45   R(30,31)                1.9233         estimate D2E/DX2                !
 ! R46   R(30,51)                1.1066         estimate D2E/DX2                !
 ! R47   R(30,52)                1.0982         estimate D2E/DX2                !
 ! R48   R(32,33)                1.4679         estimate D2E/DX2                !
 ! R49   R(32,58)                1.0135         estimate D2E/DX2                !
 ! R50   R(33,34)                1.5443         estimate D2E/DX2                !
 ! R51   R(33,35)                1.5471         estimate D2E/DX2                !
 ! R52   R(33,57)                1.0928         estimate D2E/DX2                !
 ! R53   R(34,55)                1.0931         estimate D2E/DX2                !
 ! R54   R(34,56)                1.0919         estimate D2E/DX2                !
 ! R55   R(34,63)                1.9785         estimate D2E/DX2                !
 ! R56   R(35,36)                1.2281         estimate D2E/DX2                !
 ! R57   R(35,37)                1.3629         estimate D2E/DX2                !
 ! R58   R(37,38)                1.4559         estimate D2E/DX2                !
 ! R59   R(37,61)                1.0164         estimate D2E/DX2                !
 ! R60   R(38,39)                1.5238         estimate D2E/DX2                !
 ! R61   R(38,59)                1.1056         estimate D2E/DX2                !
 ! R62   R(38,60)                1.0907         estimate D2E/DX2                !
 ! R63   R(39,40)                1.213          estimate D2E/DX2                !
 ! R64   R(39,41)                1.3464         estimate D2E/DX2                !
 ! R65   R(41,62)                0.9996         estimate D2E/DX2                !
 ! A1    A(31,1,63)             81.3896         estimate D2E/DX2                !
 ! A2    A(31,1,65)             88.5066         estimate D2E/DX2                !
 ! A3    A(63,1,64)             98.58           estimate D2E/DX2                !
 ! A4    A(64,1,65)             92.0525         estimate D2E/DX2                !
 ! A5    A(3,2,4)              107.6567         estimate D2E/DX2                !
 ! A6    A(3,2,8)              112.5366         estimate D2E/DX2                !
 ! A7    A(3,2,65)             107.3132         estimate D2E/DX2                !
 ! A8    A(4,2,8)              111.2974         estimate D2E/DX2                !
 ! A9    A(4,2,65)             105.221          estimate D2E/DX2                !
 ! A10   A(8,2,65)             112.4097         estimate D2E/DX2                !
 ! A11   A(6,5,7)              107.9468         estimate D2E/DX2                !
 ! A12   A(6,5,12)             111.4871         estimate D2E/DX2                !
 ! A13   A(6,5,65)             104.0002         estimate D2E/DX2                !
 ! A14   A(7,5,12)             112.2472         estimate D2E/DX2                !
 ! A15   A(7,5,65)             107.1964         estimate D2E/DX2                !
 ! A16   A(12,5,65)            113.4691         estimate D2E/DX2                !
 ! A17   A(2,8,9)              112.2275         estimate D2E/DX2                !
 ! A18   A(2,8,10)             110.8797         estimate D2E/DX2                !
 ! A19   A(2,8,11)             108.7999         estimate D2E/DX2                !
 ! A20   A(9,8,10)             108.7145         estimate D2E/DX2                !
 ! A21   A(9,8,11)             108.4384         estimate D2E/DX2                !
 ! A22   A(10,8,11)            107.6473         estimate D2E/DX2                !
 ! A23   A(5,12,13)            109.1274         estimate D2E/DX2                !
 ! A24   A(5,12,14)            111.6233         estimate D2E/DX2                !
 ! A25   A(5,12,15)            112.0454         estimate D2E/DX2                !
 ! A26   A(13,12,14)           107.8943         estimate D2E/DX2                !
 ! A27   A(13,12,15)           107.4461         estimate D2E/DX2                !
 ! A28   A(14,12,15)           108.5348         estimate D2E/DX2                !
 ! A29   A(17,16,46)           108.0208         estimate D2E/DX2                !
 ! A30   A(17,16,47)           110.4216         estimate D2E/DX2                !
 ! A31   A(46,16,47)           106.1726         estimate D2E/DX2                !
 ! A32   A(16,17,18)           112.4577         estimate D2E/DX2                !
 ! A33   A(16,17,20)           107.9974         estimate D2E/DX2                !
 ! A34   A(16,17,45)           108.3341         estimate D2E/DX2                !
 ! A35   A(18,17,20)           108.1544         estimate D2E/DX2                !
 ! A36   A(18,17,45)           111.6706         estimate D2E/DX2                !
 ! A37   A(20,17,45)           108.0744         estimate D2E/DX2                !
 ! A38   A(17,18,19)           118.0728         estimate D2E/DX2                !
 ! A39   A(17,18,22)           121.8367         estimate D2E/DX2                !
 ! A40   A(19,18,22)           120.0902         estimate D2E/DX2                !
 ! A41   A(17,20,21)           113.1662         estimate D2E/DX2                !
 ! A42   A(17,20,42)           107.5448         estimate D2E/DX2                !
 ! A43   A(17,20,43)           108.1655         estimate D2E/DX2                !
 ! A44   A(21,20,42)           113.488          estimate D2E/DX2                !
 ! A45   A(21,20,43)           106.4426         estimate D2E/DX2                !
 ! A46   A(42,20,43)           107.7959         estimate D2E/DX2                !
 ! A47   A(20,21,44)           108.549          estimate D2E/DX2                !
 ! A48   A(18,22,23)           130.0487         estimate D2E/DX2                !
 ! A49   A(18,22,50)           113.4428         estimate D2E/DX2                !
 ! A50   A(23,22,50)           116.5068         estimate D2E/DX2                !
 ! A51   A(22,23,24)           113.8117         estimate D2E/DX2                !
 ! A52   A(22,23,48)           109.9189         estimate D2E/DX2                !
 ! A53   A(22,23,49)           107.2737         estimate D2E/DX2                !
 ! A54   A(24,23,48)           106.0519         estimate D2E/DX2                !
 ! A55   A(24,23,49)           112.1645         estimate D2E/DX2                !
 ! A56   A(48,23,49)           107.4556         estimate D2E/DX2                !
 ! A57   A(23,24,25)           119.3378         estimate D2E/DX2                !
 ! A58   A(23,24,26)           120.6222         estimate D2E/DX2                !
 ! A59   A(25,24,26)           120.029          estimate D2E/DX2                !
 ! A60   A(24,26,27)           131.697          estimate D2E/DX2                !
 ! A61   A(24,26,54)           112.7556         estimate D2E/DX2                !
 ! A62   A(27,26,54)           115.2792         estimate D2E/DX2                !
 ! A63   A(26,27,28)           115.5591         estimate D2E/DX2                !
 ! A64   A(26,27,30)           111.2768         estimate D2E/DX2                !
 ! A65   A(26,27,53)           109.5857         estimate D2E/DX2                !
 ! A66   A(28,27,30)           111.2936         estimate D2E/DX2                !
 ! A67   A(28,27,53)           103.9471         estimate D2E/DX2                !
 ! A68   A(30,27,53)           104.3013         estimate D2E/DX2                !
 ! A69   A(27,28,29)           119.6236         estimate D2E/DX2                !
 ! A70   A(27,28,32)           116.3755         estimate D2E/DX2                !
 ! A71   A(29,28,32)           123.9619         estimate D2E/DX2                !
 ! A72   A(27,30,31)           119.016          estimate D2E/DX2                !
 ! A73   A(27,30,51)           105.7505         estimate D2E/DX2                !
 ! A74   A(27,30,52)           108.8767         estimate D2E/DX2                !
 ! A75   A(31,30,51)           100.0257         estimate D2E/DX2                !
 ! A76   A(31,30,52)           112.9785         estimate D2E/DX2                !
 ! A77   A(51,30,52)           109.2501         estimate D2E/DX2                !
 ! A78   A(1,31,30)            121.4006         estimate D2E/DX2                !
 ! A79   A(28,32,33)           119.2435         estimate D2E/DX2                !
 ! A80   A(28,32,58)           116.8053         estimate D2E/DX2                !
 ! A81   A(33,32,58)           115.2436         estimate D2E/DX2                !
 ! A82   A(32,33,34)           112.6224         estimate D2E/DX2                !
 ! A83   A(32,33,35)           109.9781         estimate D2E/DX2                !
 ! A84   A(32,33,57)           105.7502         estimate D2E/DX2                !
 ! A85   A(34,33,35)           108.1937         estimate D2E/DX2                !
 ! A86   A(34,33,57)           110.2096         estimate D2E/DX2                !
 ! A87   A(35,33,57)           110.0775         estimate D2E/DX2                !
 ! A88   A(33,34,55)           109.973          estimate D2E/DX2                !
 ! A89   A(33,34,56)           109.1668         estimate D2E/DX2                !
 ! A90   A(33,34,63)           111.1855         estimate D2E/DX2                !
 ! A91   A(55,34,56)           106.6266         estimate D2E/DX2                !
 ! A92   A(55,34,63)           110.9588         estimate D2E/DX2                !
 ! A93   A(56,34,63)           108.8012         estimate D2E/DX2                !
 ! A94   A(33,35,36)           119.973          estimate D2E/DX2                !
 ! A95   A(33,35,37)           117.9866         estimate D2E/DX2                !
 ! A96   A(36,35,37)           121.9989         estimate D2E/DX2                !
 ! A97   A(35,37,38)           127.1245         estimate D2E/DX2                !
 ! A98   A(35,37,61)           112.1093         estimate D2E/DX2                !
 ! A99   A(38,37,61)           113.8608         estimate D2E/DX2                !
 ! A100  A(37,38,39)           109.5825         estimate D2E/DX2                !
 ! A101  A(37,38,59)           110.3261         estimate D2E/DX2                !
 ! A102  A(37,38,60)           111.7607         estimate D2E/DX2                !
 ! A103  A(39,38,59)           107.8238         estimate D2E/DX2                !
 ! A104  A(39,38,60)           110.5308         estimate D2E/DX2                !
 ! A105  A(59,38,60)           106.7096         estimate D2E/DX2                !
 ! A106  A(38,39,40)           123.3401         estimate D2E/DX2                !
 ! A107  A(38,39,41)           112.2278         estimate D2E/DX2                !
 ! A108  A(40,39,41)           124.411          estimate D2E/DX2                !
 ! A109  A(39,41,62)           109.1441         estimate D2E/DX2                !
 ! A110  A(1,63,34)             99.7496         estimate D2E/DX2                !
 ! A111  A(1,65,2)             109.7692         estimate D2E/DX2                !
 ! A112  A(1,65,5)             101.0003         estimate D2E/DX2                !
 ! A113  A(2,65,5)             103.0735         estimate D2E/DX2                !
 ! A114  L(31,1,64,65,-1)      180.5592         estimate D2E/DX2                !
 ! A115  L(63,1,65,64,-1)      190.6325         estimate D2E/DX2                !
 ! A116  L(31,1,64,65,-2)      169.3696         estimate D2E/DX2                !
 ! A117  L(63,1,65,64,-2)      178.1309         estimate D2E/DX2                !
 ! D1    D(63,1,31,30)         -12.3835         estimate D2E/DX2                !
 ! D2    D(65,1,31,30)         163.8047         estimate D2E/DX2                !
 ! D3    D(31,1,63,34)        -103.2396         estimate D2E/DX2                !
 ! D4    D(64,1,63,34)          65.9993         estimate D2E/DX2                !
 ! D5    D(34,63,65,2)          95.8337         estimate D2E/DX2                !
 ! D6    D(34,63,65,5)        -156.6948         estimate D2E/DX2                !
 ! D7    D(31,1,65,2)         -162.9247         estimate D2E/DX2                !
 ! D8    D(31,1,65,5)          -54.5801         estimate D2E/DX2                !
 ! D9    D(64,1,65,2)           27.7056         estimate D2E/DX2                !
 ! D10   D(64,1,65,5)          136.0502         estimate D2E/DX2                !
 ! D11   D(3,2,8,9)             58.6182         estimate D2E/DX2                !
 ! D12   D(3,2,8,10)          -179.5886         estimate D2E/DX2                !
 ! D13   D(3,2,8,11)           -61.3849         estimate D2E/DX2                !
 ! D14   D(4,2,8,9)            179.564          estimate D2E/DX2                !
 ! D15   D(4,2,8,10)           -58.6428         estimate D2E/DX2                !
 ! D16   D(4,2,8,11)            59.5609         estimate D2E/DX2                !
 ! D17   D(65,2,8,9)           -62.6896         estimate D2E/DX2                !
 ! D18   D(65,2,8,10)           59.1036         estimate D2E/DX2                !
 ! D19   D(65,2,8,11)          177.3073         estimate D2E/DX2                !
 ! D20   D(3,2,65,1)            84.4901         estimate D2E/DX2                !
 ! D21   D(3,2,65,5)           -22.465          estimate D2E/DX2                !
 ! D22   D(4,2,65,1)           -29.9708         estimate D2E/DX2                !
 ! D23   D(4,2,65,5)          -136.9259         estimate D2E/DX2                !
 ! D24   D(8,2,65,1)          -151.2602         estimate D2E/DX2                !
 ! D25   D(8,2,65,5)           101.7847         estimate D2E/DX2                !
 ! D26   D(6,5,12,13)          -59.4173         estimate D2E/DX2                !
 ! D27   D(6,5,12,14)           59.7468         estimate D2E/DX2                !
 ! D28   D(6,5,12,15)         -178.2857         estimate D2E/DX2                !
 ! D29   D(7,5,12,13)           61.8349         estimate D2E/DX2                !
 ! D30   D(7,5,12,14)         -179.001          estimate D2E/DX2                !
 ! D31   D(7,5,12,15)          -57.0335         estimate D2E/DX2                !
 ! D32   D(65,5,12,13)        -176.4407         estimate D2E/DX2                !
 ! D33   D(65,5,12,14)         -57.2766         estimate D2E/DX2                !
 ! D34   D(65,5,12,15)          64.6909         estimate D2E/DX2                !
 ! D35   D(6,5,65,1)            50.4292         estimate D2E/DX2                !
 ! D36   D(6,5,65,2)           163.9368         estimate D2E/DX2                !
 ! D37   D(7,5,65,1)           -63.75           estimate D2E/DX2                !
 ! D38   D(7,5,65,2)            49.7577         estimate D2E/DX2                !
 ! D39   D(12,5,65,1)          171.7483         estimate D2E/DX2                !
 ! D40   D(12,5,65,2)          -74.7441         estimate D2E/DX2                !
 ! D41   D(46,16,17,18)         45.9087         estimate D2E/DX2                !
 ! D42   D(46,16,17,20)        -73.3516         estimate D2E/DX2                !
 ! D43   D(46,16,17,45)        169.8205         estimate D2E/DX2                !
 ! D44   D(47,16,17,18)        -69.792          estimate D2E/DX2                !
 ! D45   D(47,16,17,20)        170.9477         estimate D2E/DX2                !
 ! D46   D(47,16,17,45)         54.1198         estimate D2E/DX2                !
 ! D47   D(16,17,18,19)        -46.1704         estimate D2E/DX2                !
 ! D48   D(16,17,18,22)        133.6094         estimate D2E/DX2                !
 ! D49   D(20,17,18,19)         72.9983         estimate D2E/DX2                !
 ! D50   D(20,17,18,22)       -107.222          estimate D2E/DX2                !
 ! D51   D(45,17,18,19)       -168.2098         estimate D2E/DX2                !
 ! D52   D(45,17,18,22)         11.57           estimate D2E/DX2                !
 ! D53   D(16,17,20,21)        172.1032         estimate D2E/DX2                !
 ! D54   D(16,17,20,42)        -61.7435         estimate D2E/DX2                !
 ! D55   D(16,17,20,43)         54.4298         estimate D2E/DX2                !
 ! D56   D(18,17,20,21)         50.1504         estimate D2E/DX2                !
 ! D57   D(18,17,20,42)        176.3036         estimate D2E/DX2                !
 ! D58   D(18,17,20,43)        -67.523          estimate D2E/DX2                !
 ! D59   D(45,17,20,21)        -70.9006         estimate D2E/DX2                !
 ! D60   D(45,17,20,42)         55.2527         estimate D2E/DX2                !
 ! D61   D(45,17,20,43)        171.426          estimate D2E/DX2                !
 ! D62   D(17,18,22,23)         -4.6708         estimate D2E/DX2                !
 ! D63   D(17,18,22,50)        174.8404         estimate D2E/DX2                !
 ! D64   D(19,18,22,23)        175.1046         estimate D2E/DX2                !
 ! D65   D(19,18,22,50)         -5.3842         estimate D2E/DX2                !
 ! D66   D(17,20,21,44)         59.552          estimate D2E/DX2                !
 ! D67   D(42,20,21,44)        -63.3677         estimate D2E/DX2                !
 ! D68   D(43,20,21,44)        178.2276         estimate D2E/DX2                !
 ! D69   D(18,22,23,24)         87.7161         estimate D2E/DX2                !
 ! D70   D(18,22,23,48)        -31.0593         estimate D2E/DX2                !
 ! D71   D(18,22,23,49)       -147.5983         estimate D2E/DX2                !
 ! D72   D(50,22,23,24)        -91.7828         estimate D2E/DX2                !
 ! D73   D(50,22,23,48)        149.4418         estimate D2E/DX2                !
 ! D74   D(50,22,23,49)         32.9029         estimate D2E/DX2                !
 ! D75   D(22,23,24,25)        -84.4658         estimate D2E/DX2                !
 ! D76   D(22,23,24,26)         96.7426         estimate D2E/DX2                !
 ! D77   D(48,23,24,25)         36.4961         estimate D2E/DX2                !
 ! D78   D(48,23,24,26)       -142.2954         estimate D2E/DX2                !
 ! D79   D(49,23,24,25)        153.513          estimate D2E/DX2                !
 ! D80   D(49,23,24,26)        -25.2786         estimate D2E/DX2                !
 ! D81   D(23,24,26,27)          4.9168         estimate D2E/DX2                !
 ! D82   D(23,24,26,54)        178.5643         estimate D2E/DX2                !
 ! D83   D(25,24,26,27)       -173.8664         estimate D2E/DX2                !
 ! D84   D(25,24,26,54)         -0.2189         estimate D2E/DX2                !
 ! D85   D(24,26,27,28)        -89.7385         estimate D2E/DX2                !
 ! D86   D(24,26,27,30)        142.0752         estimate D2E/DX2                !
 ! D87   D(24,26,27,53)         27.2453         estimate D2E/DX2                !
 ! D88   D(54,26,27,28)         96.7404         estimate D2E/DX2                !
 ! D89   D(54,26,27,30)        -31.4458         estimate D2E/DX2                !
 ! D90   D(54,26,27,53)       -146.2757         estimate D2E/DX2                !
 ! D91   D(26,27,28,29)        144.4561         estimate D2E/DX2                !
 ! D92   D(26,27,28,32)        -37.7245         estimate D2E/DX2                !
 ! D93   D(30,27,28,29)        -87.366          estimate D2E/DX2                !
 ! D94   D(30,27,28,32)         90.4534         estimate D2E/DX2                !
 ! D95   D(53,27,28,29)         24.3477         estimate D2E/DX2                !
 ! D96   D(53,27,28,32)       -157.8329         estimate D2E/DX2                !
 ! D97   D(26,27,30,31)         38.4824         estimate D2E/DX2                !
 ! D98   D(26,27,30,51)        -72.8195         estimate D2E/DX2                !
 ! D99   D(26,27,30,52)        169.8927         estimate D2E/DX2                !
 ! D100  D(28,27,30,31)        -91.9614         estimate D2E/DX2                !
 ! D101  D(28,27,30,51)        156.7367         estimate D2E/DX2                !
 ! D102  D(28,27,30,52)         39.4489         estimate D2E/DX2                !
 ! D103  D(53,27,30,31)        156.5499         estimate D2E/DX2                !
 ! D104  D(53,27,30,51)         45.2481         estimate D2E/DX2                !
 ! D105  D(53,27,30,52)        -72.0397         estimate D2E/DX2                !
 ! D106  D(27,28,32,33)       -148.0957         estimate D2E/DX2                !
 ! D107  D(27,28,32,58)         -1.9475         estimate D2E/DX2                !
 ! D108  D(29,28,32,33)         29.6187         estimate D2E/DX2                !
 ! D109  D(29,28,32,58)        175.7669         estimate D2E/DX2                !
 ! D110  D(27,30,31,1)         103.0223         estimate D2E/DX2                !
 ! D111  D(51,30,31,1)        -142.5665         estimate D2E/DX2                !
 ! D112  D(52,30,31,1)         -26.5503         estimate D2E/DX2                !
 ! D113  D(28,32,33,34)         97.9172         estimate D2E/DX2                !
 ! D114  D(28,32,33,35)       -141.3251         estimate D2E/DX2                !
 ! D115  D(28,32,33,57)        -22.5057         estimate D2E/DX2                !
 ! D116  D(58,32,33,34)        -48.7376         estimate D2E/DX2                !
 ! D117  D(58,32,33,35)         72.02           estimate D2E/DX2                !
 ! D118  D(58,32,33,57)       -169.1606         estimate D2E/DX2                !
 ! D119  D(32,33,34,55)       -179.6367         estimate D2E/DX2                !
 ! D120  D(32,33,34,56)         63.7071         estimate D2E/DX2                !
 ! D121  D(32,33,34,63)        -56.3358         estimate D2E/DX2                !
 ! D122  D(35,33,34,55)         58.5888         estimate D2E/DX2                !
 ! D123  D(35,33,34,56)        -58.0674         estimate D2E/DX2                !
 ! D124  D(35,33,34,63)       -178.1103         estimate D2E/DX2                !
 ! D125  D(57,33,34,55)        -61.8122         estimate D2E/DX2                !
 ! D126  D(57,33,34,56)       -178.4684         estimate D2E/DX2                !
 ! D127  D(57,33,34,63)         61.4887         estimate D2E/DX2                !
 ! D128  D(32,33,35,36)        -99.2327         estimate D2E/DX2                !
 ! D129  D(32,33,35,37)         83.0615         estimate D2E/DX2                !
 ! D130  D(34,33,35,36)         24.1553         estimate D2E/DX2                !
 ! D131  D(34,33,35,37)       -153.5505         estimate D2E/DX2                !
 ! D132  D(57,33,35,36)        144.6388         estimate D2E/DX2                !
 ! D133  D(57,33,35,37)        -33.067          estimate D2E/DX2                !
 ! D134  D(33,34,63,1)         129.9823         estimate D2E/DX2                !
 ! D135  D(55,34,63,1)        -107.283          estimate D2E/DX2                !
 ! D136  D(56,34,63,1)           9.7229         estimate D2E/DX2                !
 ! D137  D(33,35,37,38)        -21.5127         estimate D2E/DX2                !
 ! D138  D(33,35,37,61)       -170.286          estimate D2E/DX2                !
 ! D139  D(36,35,37,38)        160.8308         estimate D2E/DX2                !
 ! D140  D(36,35,37,61)         12.0575         estimate D2E/DX2                !
 ! D141  D(35,37,38,39)       -106.3327         estimate D2E/DX2                !
 ! D142  D(35,37,38,59)        135.0973         estimate D2E/DX2                !
 ! D143  D(35,37,38,60)         16.5421         estimate D2E/DX2                !
 ! D144  D(61,37,38,39)         41.986          estimate D2E/DX2                !
 ! D145  D(61,37,38,59)        -76.5839         estimate D2E/DX2                !
 ! D146  D(61,37,38,60)        164.8609         estimate D2E/DX2                !
 ! D147  D(37,38,39,40)        -23.1816         estimate D2E/DX2                !
 ! D148  D(37,38,39,41)        158.4262         estimate D2E/DX2                !
 ! D149  D(59,38,39,40)         96.9279         estimate D2E/DX2                !
 ! D150  D(59,38,39,41)        -81.4643         estimate D2E/DX2                !
 ! D151  D(60,38,39,40)       -146.7824         estimate D2E/DX2                !
 ! D152  D(60,38,39,41)         34.8254         estimate D2E/DX2                !
 ! D153  D(38,39,41,62)       -172.919          estimate D2E/DX2                !
 ! D154  D(40,39,41,62)          8.7091         estimate D2E/DX2                !
 --------------------------------------------------------------------------------
 Trust Radius=3.00D-01 FncErr=1.00D-07 GrdErr=1.00D-06
 Number of steps in this run=    346 maximum allowed number of steps=    390.
 GradGradGradGradGradGradGradGradGradGradGradGradGradGradGradGradGradGrad

 Stoichiometry    C17H31AuClN5O7S2Se
 Framework group  C1[X(C17H31AuClN5O7S2Se)]
 Deg. of freedom   189
 Full point group                 C1      NOp   1
 Largest Abelian subgroup         C1      NOp   1
 Largest concise Abelian subgroup C1      NOp   1
                         Standard orientation:                         
 ---------------------------------------------------------------------
 Center     Atomic      Atomic             Coordinates (Angstroms)
 Number     Number       Type             X           Y           Z
 ---------------------------------------------------------------------
      1         79           0        3.120164   -0.235195   -0.064972
      2          6           0        6.183340    1.087928    1.284888
      3          1           0        6.767338    1.162208    0.361036
      4          1           0        6.077590    0.029356    1.525189
      5          6           0        4.722709    2.727259   -0.594874
      6          1           0        3.710557    2.840237   -1.008211
      7          1           0        5.315227    2.146051   -1.308028
      8          6           0        6.819891    1.862607    2.447186
      9          1           0        6.940014    2.924296    2.219550
     10          1           0        6.218303    1.764103    3.358306
     11          1           0        7.813994    1.436338    2.655687
     12          6           0        5.353573    4.078414   -0.287379
     13          1           0        5.406531    4.668284   -1.209662
     14          1           0        4.762171    4.643535    0.439749
     15          1           0        6.369358    3.978119    0.095190
     16          7           0       -7.883315    2.980006    0.505205
     17          6           0       -6.460857    2.653733    0.586418
     18          6           0       -6.139957    1.285338   -0.016627
     19          8           0       -6.866335    0.329655    0.287483
     20          6           0       -6.058928    2.627627    2.088243
     21          8           0       -4.754093    2.152222    2.303138
     22          7           0       -5.092866    1.103300   -0.868976
     23          6           0       -4.168056    2.077545   -1.443498
     24          6           0       -2.942365    2.359720   -0.566329
     25          8           0       -3.025673    3.198191    0.340775
     26          7           0       -1.754187    1.710691   -0.795139
     27          6           0       -1.338848    0.780463   -1.848072
     28          6           0       -1.592814   -0.718292   -1.553678
     29          8           0       -1.912175   -1.469453   -2.467633
     30          6           0        0.153899    1.033596   -2.277503
     31         16           0        1.448941    1.484447   -0.928933
     32          7           0       -1.394122   -1.127128   -0.260210
     33          6           0       -0.920241   -2.492737   -0.004532
     34          6           0        0.604740   -2.558214    0.229689
     35          6           0       -1.626104   -3.072053    1.244382
     36          8           0       -1.052911   -3.067564    2.330451
     37          7           0       -2.863725   -3.619713    1.083174
     38          6           0       -3.802484   -3.366102   -0.000321
     39          6           0       -4.946845   -2.497916    0.508156
     40          8           0       -5.262998   -2.429243    1.677216
     41          8           0       -5.578426   -1.851794   -0.490104
     42          1           0       -6.230438    3.631297    2.493642
     43          1           0       -6.729792    1.937401    2.609034
     44          1           0       -4.128870    2.732816    1.825428
     45          1           0       -5.896201    3.452796    0.097905
     46          1           0       -8.412578    2.161134    0.805338
     47          1           0       -8.153524    3.153821   -0.461594
     48          1           0       -4.671798    3.035323   -1.574635
     49          1           0       -3.889593    1.714335   -2.437433
     50          1           0       -4.945466    0.128619   -1.127811
     51          1           0        0.143904    1.975852   -2.857661
     52          1           0        0.480810    0.211321   -2.927991
     53          1           0       -1.923154    0.974376   -2.765029
     54          1           0       -1.012871    2.006195   -0.156431
     55          1           0        0.910931   -3.592168    0.408855
     56          1           0        0.853035   -1.997802    1.133300
     57          1           0       -1.191227   -3.071567   -0.890890
     58          1           0       -1.068009   -0.426576    0.395572
     59          1           0       -4.234600   -4.316398   -0.364389
     60          1           0       -3.315652   -2.895099   -0.855213
     61          1           0       -3.309083   -3.827203    1.972915
     62          1           0       -6.239603   -1.211731   -0.099676
     63         34           0        1.596410   -1.780652   -1.295528
     64         17           0        4.438999   -1.891320    1.115009
     65         16           0        4.478765    1.669683    0.903789
 ---------------------------------------------------------------------
 Rotational constants (GHZ):      0.1294820      0.0391785      0.0342279
 General basis read from cards:  (5D, 7F)
 ======================================================================================================
                                       Pseudopotential Parameters
 ======================================================================================================
  Center     Atomic      Valence      Angular      Power
  Number     Number     Electrons     Momentum     of R      Exponent        Coefficient   SO-Coeffient
 ======================================================================================================
    1         79           19
                                      G and up 
                                                     1      622.6287956      -60.00000000    0.00000000
                                                     2      136.2843607     -555.52923120    0.00000000
                                                     2       33.1549781     -168.00197850    0.00000000
                                                     2        9.9894895      -63.03998750    0.00000000
                                                     2        3.0481312       -4.25166810    0.00000000
                                      S - G
                                                     0      194.7374304        3.00000000    0.00000000
                                                     1      351.5327447       38.60208800    0.00000000
                                                     2      122.3270402      864.83707270    0.00000000
                                                     2       32.0914617      374.99355200    0.00000000
                                                     2        5.2451812      289.79101000    0.00000000
                                                     2        4.4916223     -152.45327730    0.00000000
                                      P - G
                                                     0      420.6158801        2.00000000    0.00000000
                                                     1      109.4417815       73.88856250    0.00000000
                                                     2       34.1714280      326.67298720    0.00000000
                                                     2        5.9879750      126.58145910    0.00000000
                                      D - G
                                                     0      219.2666158        3.00000000    0.00000000
                                                     1      122.7297786       55.67931490    0.00000000
                                                     2       63.1063369      449.19873350    0.00000000
                                                     2       18.3684520      215.02690910    0.00000000
                                                     2        4.4972844       64.08409950    0.00000000
                                      F - G
                                                     0      108.5506037        4.00000000    0.00000000
                                                     1       56.4795527       51.80653350    0.00000000
                                                     2       29.2069159      231.21831130    0.00000000
                                                     2        9.5440543      119.00473860    0.00000000
                                                     2        2.8965118       15.34241880    0.00000000
    2          6
                                   No pseudopotential on this center.
    3          1
                                   No pseudopotential on this center.
    4          1
                                   No pseudopotential on this center.
    5          6
                                   No pseudopotential on this center.
    6          1
                                   No pseudopotential on this center.
    7          1
                                   No pseudopotential on this center.
    8          6
                                   No pseudopotential on this center.
    9          1
                                   No pseudopotential on this center.
   10          1
                                   No pseudopotential on this center.
   11          1
                                   No pseudopotential on this center.
   12          6
                                   No pseudopotential on this center.
   13          1
                                   No pseudopotential on this center.
   14          1
                                   No pseudopotential on this center.
   15          1
                                   No pseudopotential on this center.
   16          7
                                   No pseudopotential on this center.
   17          6
                                   No pseudopotential on this center.
   18          6
                                   No pseudopotential on this center.
   19          8
                                   No pseudopotential on this center.
   20          6
                                   No pseudopotential on this center.
   21          8
                                   No pseudopotential on this center.
   22          7
                                   No pseudopotential on this center.
   23          6
                                   No pseudopotential on this center.
   24          6
                                   No pseudopotential on this center.
   25          8
                                   No pseudopotential on this center.
   26          7
                                   No pseudopotential on this center.
   27          6
                                   No pseudopotential on this center.
   28          6
                                   No pseudopotential on this center.
   29          8
                                   No pseudopotential on this center.
   30          6
                                   No pseudopotential on this center.
   31         16
                                   No pseudopotential on this center.
   32          7
                                   No pseudopotential on this center.
   33          6
                                   No pseudopotential on this center.
   34          6
                                   No pseudopotential on this center.
   35          6
                                   No pseudopotential on this center.
   36          8
                                   No pseudopotential on this center.
   37          7
                                   No pseudopotential on this center.
   38          6
                                   No pseudopotential on this center.
   39          6
                                   No pseudopotential on this center.
   40          8
                                   No pseudopotential on this center.
   41          8
                                   No pseudopotential on this center.
   42          1
                                   No pseudopotential on this center.
   43          1
                                   No pseudopotential on this center.
   44          1
                                   No pseudopotential on this center.
   45          1
                                   No pseudopotential on this center.
   46          1
                                   No pseudopotential on this center.
   47          1
                                   No pseudopotential on this center.
   48          1
                                   No pseudopotential on this center.
   49          1
                                   No pseudopotential on this center.
   50          1
                                   No pseudopotential on this center.
   51          1
                                   No pseudopotential on this center.
   52          1
                                   No pseudopotential on this center.
   53          1
                                   No pseudopotential on this center.
   54          1
                                   No pseudopotential on this center.
   55          1
                                   No pseudopotential on this center.
   56          1
                                   No pseudopotential on this center.
   57          1
                                   No pseudopotential on this center.
   58          1
                                   No pseudopotential on this center.
   59          1
                                   No pseudopotential on this center.
   60          1
                                   No pseudopotential on this center.
   61          1
                                   No pseudopotential on this center.
   62          1
                                   No pseudopotential on this center.
   63         34
                                   No pseudopotential on this center.
   64         17
                                   No pseudopotential on this center.
   65         16
                                   No pseudopotential on this center.
 ======================================================================================================
 There are   632 symmetry adapted cartesian basis functions of A   symmetry.
 There are   592 symmetry adapted basis functions of A   symmetry.
   592 basis functions,  1223 primitive gaussians,   632 cartesian basis functions
   163 alpha electrons      163 beta electrons
       nuclear repulsion energy      5653.4087794529 Hartrees.
 NAtoms=   65 NActive=   65 NUniq=   65 SFac= 1.00D+00 NAtFMM=   60 NAOKFM=T Big=T
 Integral buffers will be    131072 words long.
 Raffenetti 2 integral format.
 Two-electron integral symmetry is turned on.
 One-electron integrals computed using PRISM.
   1 Symmetry operations used in ECPInt.
 ECPInt:  NShTT=   24090 NPrTT=  146301 LenC2=   17276 LenP2D=   54773.
 LDataN:  DoStor=T MaxTD1= 7 Len=  274
 NBasis=   592 RedAO= T EigKep=  2.51D-03  NBF=   592
 NBsUse=   592 1.00D-06 EigRej= -1.00D+00 NBFU=   592
 Defaulting to unpruned grid for atomic number  79.
 ExpMin= 2.79D-02 ExpMax= 5.61D+05 ExpMxC= 5.42D+03 IAcc=3 IRadAn=         5 AccDes= 0.00D+00
 Harris functional with IExCor=  402 and IRadAn=       5 diagonalized for initial guess.
 HarFok:  IExCor=  402 AccDes= 0.00D+00 IRadAn=         5 IDoV= 1 UseB2=F ITyADJ=14
 ICtDFT=  3500011 ScaDFX=  1.000000  1.000000  1.000000  1.000000
 Defaulting to unpruned grid for atomic number  79.
 Defaulting to unpruned grid for atomic number  79.
 Defaulting to unpruned grid for atomic number  79.
 Defaulting to unpruned grid for atomic number  79.
 Defaulting to unpruned grid for atomic number  79.
 Defaulting to unpruned grid for atomic number  79.
 Defaulting to unpruned grid for atomic number  79.
 Defaulting to unpruned grid for atomic number  79.
 Defaulting to unpruned grid for atomic number  79.
 Defaulting to unpruned grid for atomic number  79.
 Defaulting to unpruned grid for atomic number  79.
 Defaulting to unpruned grid for atomic number  79.
 Defaulting to unpruned grid for atomic number  79.
 Defaulting to unpruned grid for atomic number  79.
 Defaulting to unpruned grid for atomic number  79.
 FoFCou: FMM=F IPFlag=           0 FMFlag=      100000 FMFlg1=        2001
         NFxFlg=           0 DoJE=T BraDBF=F KetDBF=T FulRan=T
         wScrn=  0.000000 ICntrl=     500 IOpCl=  0 I1Cent=   200000004 NGrid=           0
         NMat0=    1 NMatS0=      1 NMatT0=    0 NMatD0=    1 NMtDS0=    0 NMtDT0=    0
 Petite list used in FoFCou.
 Requested convergence on RMS density matrix=1.00D-08 within 128 cycles.
 Requested convergence on MAX density matrix=1.00D-06.
 Requested convergence on             energy=1.00D-06.
 No special actions if energy rises.
 Defaulting to unpruned grid for atomic number  79.
 Defaulting to unpruned grid for atomic number  79.
 Defaulting to unpruned grid for atomic number  79.
 Defaulting to unpruned grid for atomic number  79.
 Defaulting to unpruned grid for atomic number  79.
 Defaulting to unpruned grid for atomic number  79.
 Defaulting to unpruned grid for atomic number  79.
 Defaulting to unpruned grid for atomic number  79.
 Defaulting to unpruned grid for atomic number  79.
 Defaulting to unpruned grid for atomic number  79.
 Defaulting to unpruned grid for atomic number  79.
 Defaulting to unpruned grid for atomic number  79.
 Defaulting to unpruned grid for atomic number  79.
 Defaulting to unpruned grid for atomic number  79.
 Defaulting to unpruned grid for atomic number  79.
 EnCoef did     5 forward-backward iterations
 SCF Done:  E(RB3LYP) =  -5257.83904512     A.U. after   20 cycles
            NFock= 20  Conv=0.50D-08     -V/T= 2.0186

 **********************************************************************

            Population analysis using the SCF density.

 **********************************************************************

 Orbital symmetries:
       Occupied  (A) (A) (A) (A) (A) (A) (A) (A) (A) (A) (A) (A)
                 (A) (A) (A) (A) (A) (A) (A) (A) (A) (A) (A) (A)
                 (A) (A) (A) (A) (A) (A) (A) (A) (A) (A) (A) (A)
                 (A) (A) (A) (A) (A) (A) (A) (A) (A) (A) (A) (A)
                 (A) (A) (A) (A) (A) (A) (A) (A) (A) (A) (A) (A)
                 (A) (A) (A) (A) (A) (A) (A) (A) (A) (A) (A) (A)
                 (A) (A) (A) (A) (A) (A) (A) (A) (A) (A) (A) (A)
                 (A) (A) (A) (A) (A) (A) (A) (A) (A) (A) (A) (A)
                 (A) (A) (A) (A) (A) (A) (A) (A) (A) (A) (A) (A)
                 (A) (A) (A) (A) (A) (A) (A) (A) (A) (A) (A) (A)
                 (A) (A) (A) (A) (A) (A) (A) (A) (A) (A) (A) (A)
                 (A) (A) (A) (A) (A) (A) (A) (A) (A) (A) (A) (A)
                 (A) (A) (A) (A) (A) (A) (A) (A) (A) (A) (A) (A)
                 (A) (A) (A) (A) (A) (A) (A)
       Virtual   (A) (A) (A) (A) (A) (A) (A) (A) (A) (A) (A) (A)
                 (A) (A) (A) (A) (A) (A) (A) (A) (A) (A) (A) (A)
                 (A) (A) (A) (A) (A) (A) (A) (A) (A) (A) (A) (A)
                 (A) (A) (A) (A) (A) (A) (A) (A) (A) (A) (A) (A)
                 (A) (A) (A) (A) (A) (A) (A) (A) (A) (A) (A) (A)
                 (A) (A) (A) (A) (A) (A) (A) (A) (A) (A) (A) (A)
                 (A) (A) (A) (A) (A) (A) (A) (A) (A) (A) (A) (A)
                 (A) (A) (A) (A) (A) (A) (A) (A) (A) (A) (A) (A)
                 (A) (A) (A) (A) (A) (A) (A) (A) (A) (A) (A) (A)
                 (A) (A) (A) (A) (A) (A) (A) (A) (A) (A) (A) (A)
                 (A) (A) (A) (A) (A) (A) (A) (A) (A) (A) (A) (A)
                 (A) (A) (A) (A) (A) (A) (A) (A) (A) (A) (A) (A)
                 (A) (A) (A) (A) (A) (A) (A) (A) (A) (A) (A) (A)
                 (A) (A) (A) (A) (A) (A) (A) (A) (A) (A) (A) (A)
                 (A) (A) (A) (A) (A) (A) (A) (A) (A) (A) (A) (A)
                 (A) (A) (A) (A) (A) (A) (A) (A) (A) (A) (A) (A)
                 (A) (A) (A) (A) (A) (A) (A) (A) (A) (A) (A) (A)
                 (A) (A) (A) (A) (A) (A) (A) (A) (A) (A) (A) (A)
                 (A) (A) (A) (A) (A) (A) (A) (A) (A) (A) (A) (A)
                 (A) (A) (A) (A) (A) (A) (A) (A) (A) (A) (A) (A)
                 (A) (A) (A) (A) (A) (A) (A) (A) (A) (A) (A) (A)
                 (A) (A) (A) (A) (A) (A) (A) (A) (A) (A) (A) (A)
                 (A) (A) (A) (A) (A) (A) (A) (A) (A) (A) (A) (A)
                 (A) (A) (A) (A) (A) (A) (A) (A) (A) (A) (A) (A)
                 (A) (A) (A) (A) (A) (A) (A) (A) (A) (A) (A) (A)
                 (A) (A) (A) (A) (A) (A) (A) (A) (A) (A) (A) (A)
                 (A) (A) (A) (A) (A) (A) (A) (A) (A) (A) (A) (A)
                 (A) (A) (A) (A) (A) (A) (A) (A) (A) (A) (A) (A)
                 (A) (A) (A) (A) (A) (A) (A) (A) (A) (A) (A) (A)
                 (A) (A) (A) (A) (A) (A) (A) (A) (A) (A) (A) (A)
                 (A) (A) (A) (A) (A) (A) (A) (A) (A) (A) (A) (A)
                 (A) (A) (A) (A) (A) (A) (A) (A) (A) (A) (A) (A)
                 (A) (A) (A) (A) (A) (A) (A) (A) (A) (A) (A) (A)
                 (A) (A) (A) (A) (A) (A) (A) (A) (A) (A) (A) (A)
                 (A) (A) (A) (A) (A) (A) (A) (A) (A) (A) (A) (A)
                 (A) (A) (A) (A) (A) (A) (A) (A) (A)
 The electronic state is 1-A.
 Alpha  occ. eigenvalues -- -453.57493-101.48770 -88.93130 -88.88984 -57.29423
 Alpha  occ. eigenvalues --  -52.07007 -52.06895 -52.06597 -19.17546 -19.14450
 Alpha  occ. eigenvalues --  -19.14222 -19.13366 -19.13168 -19.11592 -19.11498
 Alpha  occ. eigenvalues --  -14.39174 -14.38007 -14.37866 -14.35809 -14.31232
 Alpha  occ. eigenvalues --  -10.32286 -10.31416 -10.31159 -10.30067 -10.29142
 Alpha  occ. eigenvalues --  -10.27433 -10.26023 -10.25414 -10.25031 -10.24782
 Alpha  occ. eigenvalues --  -10.24353 -10.23407 -10.22026 -10.21843 -10.21312
 Alpha  occ. eigenvalues --  -10.21100 -10.20634  -9.41765  -8.00542  -7.96168
 Alpha  occ. eigenvalues --   -7.64464  -7.17921  -7.17211  -7.17193  -5.96826
 Alpha  occ. eigenvalues --   -5.96580  -5.96153  -5.92590  -5.92276  -5.91611
 Alpha  occ. eigenvalues --   -5.77568  -5.77182  -5.76091  -4.24390  -2.38357
 Alpha  occ. eigenvalues --   -2.38040  -2.36071  -2.13758  -2.13718  -2.12822
 Alpha  occ. eigenvalues --   -2.12514  -2.12310  -1.09378  -1.06534  -1.06105
 Alpha  occ. eigenvalues --   -1.05322  -1.03791  -1.00744  -0.99864  -0.95942
 Alpha  occ. eigenvalues --   -0.94508  -0.94173  -0.92636  -0.88935  -0.86341
 Alpha  occ. eigenvalues --   -0.81267  -0.80000  -0.79211  -0.76609  -0.76259
 Alpha  occ. eigenvalues --   -0.74610  -0.73882  -0.73072  -0.72375  -0.70719
 Alpha  occ. eigenvalues --   -0.66120  -0.64999  -0.64300  -0.62849  -0.62635
 Alpha  occ. eigenvalues --   -0.61914  -0.61286  -0.60716  -0.58666  -0.58179
 Alpha  occ. eigenvalues --   -0.55503  -0.53376  -0.52729  -0.52022  -0.51057
 Alpha  occ. eigenvalues --   -0.50854  -0.50313  -0.50057  -0.49875  -0.49420
 Alpha  occ. eigenvalues --   -0.48706  -0.48272  -0.47679  -0.47421  -0.46511
 Alpha  occ. eigenvalues --   -0.46159  -0.46063  -0.45607  -0.45189  -0.44508
 Alpha  occ. eigenvalues --   -0.44115  -0.44012  -0.43421  -0.43084  -0.42851
 Alpha  occ. eigenvalues --   -0.42655  -0.42497  -0.42155  -0.41678  -0.41608
 Alpha  occ. eigenvalues --   -0.41338  -0.40838  -0.40725  -0.40133  -0.39939
 Alpha  occ. eigenvalues --   -0.39586  -0.39350  -0.39075  -0.39009  -0.38651
 Alpha  occ. eigenvalues --   -0.37977  -0.37815  -0.37523  -0.37305  -0.37121
 Alpha  occ. eigenvalues --   -0.35748  -0.34972  -0.34116  -0.31968  -0.31525
 Alpha  occ. eigenvalues --   -0.31328  -0.30309  -0.29983  -0.29932  -0.29045
 Alpha  occ. eigenvalues --   -0.28907  -0.28382  -0.28321  -0.27444  -0.27289
 Alpha  occ. eigenvalues --   -0.26990  -0.26772  -0.25917  -0.25585  -0.25369
 Alpha  occ. eigenvalues --   -0.24927  -0.24004  -0.22395
 Alpha virt. eigenvalues --   -0.14748  -0.04342  -0.03030  -0.02778  -0.01719
 Alpha virt. eigenvalues --   -0.01155   0.00499   0.00820   0.01171   0.01516
 Alpha virt. eigenvalues --    0.02345   0.03367   0.03905   0.04485   0.05734
 Alpha virt. eigenvalues --    0.06138   0.07770   0.08152   0.09290   0.09453
 Alpha virt. eigenvalues --    0.10386   0.10594   0.10940   0.11434   0.11709
 Alpha virt. eigenvalues --    0.12230   0.12667   0.12982   0.13088   0.13149
 Alpha virt. eigenvalues --    0.13612   0.13948   0.14394   0.14581   0.15080
 Alpha virt. eigenvalues --    0.15404   0.15720   0.16241   0.16465   0.17084
 Alpha virt. eigenvalues --    0.17196   0.17433   0.17761   0.18061   0.18496
 Alpha virt. eigenvalues --    0.18598   0.18903   0.19112   0.19244   0.19586
 Alpha virt. eigenvalues --    0.20426   0.20863   0.21302   0.21579   0.21824
 Alpha virt. eigenvalues --    0.22523   0.22848   0.24236   0.25000   0.25194
 Alpha virt. eigenvalues --    0.25590   0.26037   0.26483   0.27155   0.27523
 Alpha virt. eigenvalues --    0.30477   0.30774   0.31643   0.31772   0.32667
 Alpha virt. eigenvalues --    0.33196   0.33876   0.34326   0.35349   0.36011
 Alpha virt. eigenvalues --    0.36586   0.36898   0.37520   0.38526   0.39330
 Alpha virt. eigenvalues --    0.40347   0.41668   0.42288   0.42913   0.43638
 Alpha virt. eigenvalues --    0.44651   0.45281   0.45375   0.46088   0.46788
 Alpha virt. eigenvalues --    0.47124   0.48073   0.48631   0.48807   0.49829
 Alpha virt. eigenvalues --    0.50565   0.51219   0.51999   0.52263   0.52736
 Alpha virt. eigenvalues --    0.53333   0.53796   0.54007   0.54748   0.55219
 Alpha virt. eigenvalues --    0.55741   0.56440   0.56492   0.57258   0.57351
 Alpha virt. eigenvalues --    0.57557   0.58356   0.59372   0.59728   0.60334
 Alpha virt. eigenvalues --    0.60888   0.61812   0.62068   0.62491   0.62949
 Alpha virt. eigenvalues --    0.63622   0.63828   0.64287   0.64802   0.65198
 Alpha virt. eigenvalues --    0.65647   0.65768   0.66164   0.66470   0.67135
 Alpha virt. eigenvalues --    0.67241   0.67940   0.68073   0.69048   0.69443
 Alpha virt. eigenvalues --    0.69830   0.70045   0.71544   0.71876   0.72509
 Alpha virt. eigenvalues --    0.72925   0.73202   0.73958   0.74297   0.75484
 Alpha virt. eigenvalues --    0.76030   0.76623   0.76870   0.77627   0.77889
 Alpha virt. eigenvalues --    0.78190   0.79489   0.79843   0.80381   0.80498
 Alpha virt. eigenvalues --    0.81876   0.82200   0.82242   0.82875   0.83060
 Alpha virt. eigenvalues --    0.83479   0.83708   0.84177   0.84389   0.84849
 Alpha virt. eigenvalues --    0.85487   0.85707   0.85769   0.86077   0.86457
 Alpha virt. eigenvalues --    0.86766   0.87373   0.87607   0.88181   0.88486
 Alpha virt. eigenvalues --    0.89213   0.89535   0.89575   0.89805   0.90303
 Alpha virt. eigenvalues --    0.90417   0.90695   0.91148   0.91579   0.91818
 Alpha virt. eigenvalues --    0.92028   0.92267   0.92814   0.93174   0.93548
 Alpha virt. eigenvalues --    0.93917   0.94175   0.94594   0.94915   0.95213
 Alpha virt. eigenvalues --    0.95657   0.95895   0.96593   0.97306   0.97589
 Alpha virt. eigenvalues --    0.97714   0.98565   0.98674   0.99391   0.99964
 Alpha virt. eigenvalues --    1.00606   1.00923   1.01372   1.01962   1.03459
 Alpha virt. eigenvalues --    1.03733   1.04491   1.05241   1.05513   1.07134
 Alpha virt. eigenvalues --    1.08354   1.08624   1.09140   1.09505   1.10411
 Alpha virt. eigenvalues --    1.10715   1.11793   1.12675   1.12943   1.14255
 Alpha virt. eigenvalues --    1.15113   1.15586   1.17016   1.20244   1.20481
 Alpha virt. eigenvalues --    1.21006   1.22003   1.23191   1.23629   1.25156
 Alpha virt. eigenvalues --    1.25886   1.26949   1.27887   1.27958   1.29079
 Alpha virt. eigenvalues --    1.30634   1.31636   1.33323   1.34284   1.35801
 Alpha virt. eigenvalues --    1.37854   1.38864   1.40331   1.41240   1.42066
 Alpha virt. eigenvalues --    1.42947   1.44722   1.45245   1.45924   1.46198
 Alpha virt. eigenvalues --    1.48094   1.48999   1.50562   1.51756   1.52124
 Alpha virt. eigenvalues --    1.52350   1.53364   1.54711   1.54940   1.56306
 Alpha virt. eigenvalues --    1.56708   1.57079   1.58460   1.59840   1.60298
 Alpha virt. eigenvalues --    1.60521   1.62343   1.62562   1.65368   1.67090
 Alpha virt. eigenvalues --    1.67594   1.68173   1.68594   1.70456   1.71152
 Alpha virt. eigenvalues --    1.71589   1.73506   1.73748   1.75487   1.75598
 Alpha virt. eigenvalues --    1.76593   1.77920   1.78214   1.79235   1.79786
 Alpha virt. eigenvalues --    1.80385   1.80996   1.81834   1.82639   1.82975
 Alpha virt. eigenvalues --    1.83334   1.83696   1.84650   1.84835   1.85322
 Alpha virt. eigenvalues --    1.86438   1.86847   1.87520   1.88638   1.89130
 Alpha virt. eigenvalues --    1.89751   1.90587   1.91483   1.92094   1.92396
 Alpha virt. eigenvalues --    1.92591   1.92974   1.93285   1.93470   1.93633
 Alpha virt. eigenvalues --    1.93861   1.94144   1.94583   1.94891   1.95010
 Alpha virt. eigenvalues --    1.95800   1.96096   1.96485   1.97193   1.97450
 Alpha virt. eigenvalues --    1.98846   1.99187   1.99511   2.00118   2.00228
 Alpha virt. eigenvalues --    2.01277   2.02146   2.02326   2.02614   2.03125
 Alpha virt. eigenvalues --    2.03203   2.04286   2.05484   2.06320   2.06596
 Alpha virt. eigenvalues --    2.07147   2.07700   2.08741   2.09799   2.10732
 Alpha virt. eigenvalues --    2.11546   2.12396   2.12867   2.13277   2.15356
 Alpha virt. eigenvalues --    2.16227   2.16501   2.16544   2.17440   2.18745
 Alpha virt. eigenvalues --    2.21264   2.21888   2.21951   2.23006   2.23774
 Alpha virt. eigenvalues --    2.24930   2.25663   2.26005   2.26788   2.27235
 Alpha virt. eigenvalues --    2.27956   2.28731   2.29406   2.30480   2.31590
 Alpha virt. eigenvalues --    2.32165   2.33893   2.34877   2.37070   2.38302
 Alpha virt. eigenvalues --    2.39295   2.40389   2.41548   2.42730   2.43906
 Alpha virt. eigenvalues --    2.44962   2.46493   2.48952   2.50176   2.51507
 Alpha virt. eigenvalues --    2.52615   2.53595   2.54215   2.55517   2.55897
 Alpha virt. eigenvalues --    2.57232   2.57609   2.58283   2.59047   2.59798
 Alpha virt. eigenvalues --    2.60957   2.61355   2.63389   2.65559   2.66012
 Alpha virt. eigenvalues --    2.66859   2.67540   2.67811   2.71274   2.72608
 Alpha virt. eigenvalues --    2.76561   2.81480   2.83157   2.85616   2.88651
 Alpha virt. eigenvalues --    2.90667   2.92135   2.93325   2.94423   2.97878
 Alpha virt. eigenvalues --    2.98462   3.00408   3.00982   3.04667   3.08780
 Alpha virt. eigenvalues --    3.10105   3.13207   3.13899   3.14332   7.96434
 Alpha virt. eigenvalues --   15.52047  15.60215  15.62630  43.00975
          Condensed to atoms (all electrons):
 Mulliken charges:
               1
     1  Au  -0.069685
     2  C   -0.440100
     3  H    0.191988
     4  H    0.251226
     5  C   -0.428670
     6  H    0.234049
     7  H    0.203505
     8  C   -0.447599
     9  H    0.162899
    10  H    0.183564
    11  H    0.171751
    12  C   -0.453109
    13  H    0.173469
    14  H    0.179706
    15  H    0.164949
    16  N   -0.702983
    17  C   -0.110404
    18  C    0.591208
    19  O   -0.521326
    20  C   -0.000361
    21  O   -0.657013
    22  N   -0.588884
    23  C   -0.237311
    24  C    0.567088
    25  O   -0.482561
    26  N   -0.586610
    27  C   -0.062834
    28  C    0.566168
    29  O   -0.469698
    30  C   -0.420170
    31  S   -0.047978
    32  N   -0.560669
    33  C   -0.093682
    34  C   -0.351194
    35  C    0.549050
    36  O   -0.457659
    37  N   -0.552535
    38  C   -0.253509
    39  C    0.551423
    40  O   -0.413452
    41  O   -0.621924
    42  H    0.137978
    43  H    0.154894
    44  H    0.429303
    45  H    0.139819
    46  H    0.318713
    47  H    0.298437
    48  H    0.197391
    49  H    0.174274
    50  H    0.359553
    51  H    0.193279
    52  H    0.226900
    53  H    0.179611
    54  H    0.365213
    55  H    0.211268
    56  H    0.233702
    57  H    0.196623
    58  H    0.348950
    59  H    0.189271
    60  H    0.210123
    61  H    0.351002
    62  H    0.457416
    63  Se  -0.086176
    64  Cl  -0.287891
    65  S    0.290222
 Sum of Mulliken charges =   0.00000
 Mulliken charges with hydrogens summed into heavy atoms:
               1
     1  Au  -0.069685
     2  C    0.003113
     5  C    0.008885
     8  C    0.070615
    12  C    0.065015
    16  N   -0.085833
    17  C    0.029415
    18  C    0.591208
    19  O   -0.521326
    20  C    0.292510
    21  O   -0.227710
    22  N   -0.229331
    23  C    0.134354
    24  C    0.567088
    25  O   -0.482561
    26  N   -0.221397
    27  C    0.116777
    28  C    0.566168
    29  O   -0.469698
    30  C    0.000009
    31  S   -0.047978
    32  N   -0.211719
    33  C    0.102941
    34  C    0.093776
    35  C    0.549050
    36  O   -0.457659
    37  N   -0.201533
    38  C    0.145885
    39  C    0.551423
    40  O   -0.413452
    41  O   -0.164507
    63  Se  -0.086176
    64  Cl  -0.287891
    65  S    0.290222
 Electronic spatial extent (au):  <R**2>=          27789.9870
 Charge=              0.0000 electrons
 Dipole moment (field-independent basis, Debye):
    X=              6.4254    Y=              6.8685    Z=             -6.9557  Tot=             11.6980
 Quadrupole moment (field-independent basis, Debye-Ang):
   XX=           -238.6249   YY=           -251.3343   ZZ=           -265.2203
   XY=             28.1924   XZ=             27.2900   YZ=             -5.6274
 Traceless Quadrupole moment (field-independent basis, Debye-Ang):
   XX=             13.1016   YY=              0.3922   ZZ=            -13.4938
   XY=             28.1924   XZ=             27.2900   YZ=             -5.6274
 Octapole moment (field-independent basis, Debye-Ang**2):
  XXX=            693.9502  YYY=           -109.7197  ZZZ=            -59.5487  XYY=            131.6497
  XXY=            145.4545  XXZ=           -118.8754  XZZ=            159.7589  YZZ=             29.5042
  YYZ=            -59.0902  XYZ=             53.5222
 Hexadecapole moment (field-independent basis, Debye-Ang**3):
 XXXX=         -25053.6380 YYYY=          -7079.9330 ZZZZ=          -2720.5573 XXXY=            681.8063
 XXXZ=            946.1910 YYYX=            375.9257 YYYZ=             12.0727 ZZZX=            -19.7575
 ZZZY=             38.0537 XXYY=          -5522.8853 XXZZ=          -4815.7071 YYZZ=          -1709.2656
 XXYZ=           -177.2519 YYXZ=             93.6005 ZZXY=           -110.4995
 N-N= 5.653408779453D+03 E-N=-2.374803576229D+04  KE= 5.161778957810D+03
   1 Symmetry operations used in ECPInt.
 ECPInt:  NShTT=   24090 NPrTT=  146301 LenC2=   17276 LenP2D=   54773.
 LDataN:  DoStor=T MaxTD1= 8 Len=  415
 Calling FoFJK, ICntrl=      2127 FMM=T ISym2X=0 I1Cent= 0 IOpClX= 0 NMat=1 NMatS=1 NMatT=0.
 Defaulting to unpruned grid for atomic number  79.
 Defaulting to unpruned grid for atomic number  79.
 Defaulting to unpruned grid for atomic number  79.
 Defaulting to unpruned grid for atomic number  79.
 Defaulting to unpruned grid for atomic number  79.
 Defaulting to unpruned grid for atomic number  79.
 Defaulting to unpruned grid for atomic number  79.
 Defaulting to unpruned grid for atomic number  79.
 Defaulting to unpruned grid for atomic number  79.
 Defaulting to unpruned grid for atomic number  79.
 Defaulting to unpruned grid for atomic number  79.
 Defaulting to unpruned grid for atomic number  79.
 Defaulting to unpruned grid for atomic number  79.
 Defaulting to unpruned grid for atomic number  79.
 Defaulting to unpruned grid for atomic number  79.
 ***** Axes restored to original set *****
 -------------------------------------------------------------------
 Center     Atomic                   Forces (Hartrees/Bohr)
 Number     Number              X              Y              Z
 -------------------------------------------------------------------
      1       79           0.020396948    0.008667239    0.007987242
      2        6          -0.004172182    0.000796362   -0.001379095
      3        1          -0.000016271    0.000457040   -0.000672340
      4        1           0.000640745   -0.001214406   -0.000379285
      5        6           0.003007453   -0.000902395    0.000768270
      6        1          -0.004186173   -0.000080891   -0.001113569
      7        1          -0.000096571    0.000408757    0.000459866
      8        6          -0.000469947   -0.004678903    0.001037439
      9        1          -0.000282454    0.001066710   -0.000433237
     10        1          -0.000509683    0.000759086    0.001198227
     11        1           0.002871782    0.001655695    0.001038127
     12        6           0.001112588    0.001681086    0.000370194
     13        1           0.000126239   -0.000072296    0.000416958
     14        1           0.000122698   -0.000402940   -0.000167357
     15        1          -0.002826045   -0.000041956   -0.001283821
     16        7           0.000458454    0.000459859    0.000653995
     17        6           0.000426063    0.002416520   -0.003065586
     18        6          -0.000909076    0.002486926   -0.001088265
     19        8           0.002394724   -0.003347910   -0.000607719
     20        6           0.001217833   -0.002499239    0.004248698
     21        8          -0.004182121    0.001317303    0.000204964
     22        7          -0.004390724   -0.001986138    0.003353912
     23        6           0.002146336   -0.004314312    0.001111000
     24        6          -0.006017888    0.006994988   -0.007325026
     25        8          -0.001466100   -0.008076649    0.007016916
     26        7          -0.002275229    0.000401205   -0.000928147
     27        6           0.001868683    0.001471708    0.002431380
     28        6          -0.003492724    0.004258465   -0.003065149
     29        8          -0.000880055    0.000391780   -0.001353454
     30        6          -0.002175899    0.011678813   -0.004056736
     31       16           0.003940366   -0.012698954    0.006141990
     32        7          -0.004155635   -0.002739078    0.001985577
     33        6           0.002454042   -0.003210407   -0.001048859
     34        6           0.006599988    0.001086519   -0.002672944
     35        6          -0.006263350    0.001230605   -0.004374859
     36        8           0.002579357    0.000107744    0.003208257
     37        7           0.003192271   -0.000587520    0.002415098
     38        6          -0.000703197   -0.004170118    0.000459769
     39        6           0.006704874    0.003796333   -0.002057291
     40        8          -0.002462079   -0.001017484    0.003572439
     41        8          -0.005865596   -0.004865637    0.000537716
     42        1          -0.000114803    0.002667575   -0.000529961
     43        1           0.000445591   -0.000432496    0.000191831
     44        1           0.001771387   -0.001694816   -0.001400383
     45        1          -0.000597733   -0.000072785    0.000349930
     46        1          -0.000189793   -0.000081650    0.000108032
     47        1           0.000095139   -0.000081351    0.000089446
     48        1          -0.000107730    0.000794759    0.000042056
     49        1           0.000089832   -0.000176285   -0.000325991
     50        1          -0.000071514    0.001888064   -0.000195017
     51        1          -0.002468137   -0.006447163   -0.002749299
     52        1          -0.001269152    0.005005127   -0.005782244
     53        1          -0.003442614   -0.000796998   -0.005307447
     54        1           0.002539553   -0.000326073    0.001476239
     55        1          -0.001463662    0.001244395    0.002970112
     56        1          -0.001026641   -0.000520900    0.001008732
     57        1          -0.000850823    0.000454798   -0.000067944
     58        1           0.000290092    0.000764661   -0.000224741
     59        1          -0.001607262    0.003230013   -0.001533024
     60        1           0.000476141    0.000114406   -0.000546042
     61        1           0.000433501   -0.000076707   -0.000141264
     62        1           0.003258892    0.002519989   -0.002031647
     63       34          -0.009740366   -0.009865427   -0.005804842
     64       17           0.004794872    0.003848688    0.006068798
     65       16           0.004292789    0.001356664    0.000789373
 -------------------------------------------------------------------
 Cartesian Forces:  Max     0.020396948 RMS     0.003512375

 GradGradGradGradGradGradGradGradGradGradGradGradGradGradGradGradGradGrad
 Berny optimization.
 FormGI is forming the generalized inverse of G from B-inverse, IUseBI=4.
 GSVD:  received Info=                   1 from GESDD.
 Internal  Forces:  Max     0.023705947 RMS     0.003167570
 Search for a local minimum.
 Step number   1 out of a maximum of  346
 All quantities printed in internal units (Hartrees-Bohrs-Radians)
 Mixed Optimization -- RFO/linear search
 Second derivative matrix not updated -- first step.
 ITU=  0
     Eigenvalues ---    0.00230   0.00230   0.00230   0.00230   0.00230
     Eigenvalues ---    0.00230   0.00230   0.00280   0.00303   0.00324
     Eigenvalues ---    0.00345   0.00377   0.00452   0.00468   0.00501
     Eigenvalues ---    0.00831   0.00836   0.00876   0.00885   0.00951
     Eigenvalues ---    0.00953   0.01020   0.01035   0.01119   0.01172
     Eigenvalues ---    0.01322   0.01391   0.01622   0.01724   0.01870
     Eigenvalues ---    0.02048   0.02182   0.02190   0.02400   0.02566
     Eigenvalues ---    0.03478   0.03666   0.03969   0.03982   0.04283
     Eigenvalues ---    0.04347   0.04442   0.04592   0.04729   0.04745
     Eigenvalues ---    0.04896   0.05079   0.05141   0.05205   0.05227
     Eigenvalues ---    0.05318   0.05349   0.05422   0.05467   0.05734
     Eigenvalues ---    0.05776   0.05777   0.05920   0.05989   0.06008
     Eigenvalues ---    0.06118   0.06410   0.06577   0.06936   0.07750
     Eigenvalues ---    0.09429   0.09560   0.09605   0.09822   0.10129
     Eigenvalues ---    0.10293   0.11182   0.11424   0.11549   0.11602
     Eigenvalues ---    0.12033   0.12495   0.12745   0.12749   0.12863
     Eigenvalues ---    0.12894   0.13022   0.13374   0.14018   0.14283
     Eigenvalues ---    0.14710   0.14935   0.14989   0.15228   0.15240
     Eigenvalues ---    0.15957   0.16000   0.16000   0.16000   0.16000
     Eigenvalues ---    0.16000   0.16000   0.16000   0.16000   0.16000
     Eigenvalues ---    0.16000   0.16000   0.16214   0.16311   0.16411
     Eigenvalues ---    0.17475   0.18262   0.18411   0.18541   0.20307
     Eigenvalues ---    0.21910   0.21954   0.21985   0.22000   0.22017
     Eigenvalues ---    0.22018   0.22082   0.22418   0.22517   0.22658
     Eigenvalues ---    0.23136   0.23768   0.24256   0.24983   0.24983
     Eigenvalues ---    0.24994   0.24996   0.25000   0.25000   0.25000
     Eigenvalues ---    0.25000   0.25000   0.25531   0.27239   0.27589
     Eigenvalues ---    0.27896   0.27970   0.28965   0.29110   0.29477
     Eigenvalues ---    0.30007   0.30122   0.32964   0.33071   0.33194
     Eigenvalues ---    0.33511   0.33780   0.33877   0.34101   0.34121
     Eigenvalues ---    0.34133   0.34187   0.34303   0.34310   0.34322
     Eigenvalues ---    0.34327   0.34399   0.34454   0.34496   0.34532
     Eigenvalues ---    0.34595   0.34729   0.34738   0.34802   0.34805
     Eigenvalues ---    0.35549   0.36334   0.36758   0.36840   0.37487
[...]
 00008095,0.00002079,-0.00007606,-0.00001817,0.00002440,0.00002103,-0.0
 0026357,-0.00016471,0.00025490,0.00008325,0.00011871,-0.00015427,0.000
 16817,0.00005641,0.00006878,0.00062076,-0.00008108,0.00015823,0.000017
 72,0.00017205,0.00160291,0.00020281,0.00016643,-0.00050598,-0.00136150
 ,-0.00298261,0.00024628,-0.00213756,-0.00508920,0.00016401,-0.00351182
 ,-0.00036272,0.00266865,0.00159861,0.00087291,-0.00147340,0.01217304,-
 0.03998226,-0.02994002,0.00054876,-0.00037177,0.00150681,-0.00052708,0
 .00015292,0.00008004,-0.00009737,0.00013890,-0.00022586,-0.00003982,0.
 00000733,-0.00002471,-0.00000243,-0.00002365,0.00004342,0.00000804,0.0
 0001933,-0.00003569,0.00000054,-0.00001541,-0.00002205,0.00000266,0.00
 000675,-0.00000136,0.00000473,-0.00000266,-0.00000338,-0.00001977,-0.0
 0001331,0.00005805,-0.00000494,-0.00000678,-0.00000555,-0.00000555,-0.
 00000729,0.00000499,-0.00000667,-0.00000426,0.00000126,0.00001330,-0.0
 0000249,-0.00000495,-0.00001430,0.00000451,-0.00001153,-0.00000598,0.0
 0000659,0.00001054,0.00048158,-0.00056800,0.00043776,-0.00067710,-0.00
 105697,0.00014788,0.00013551,-0.00003630,-0.00007863,-0.00026048,-0.00
 002210,0.00006402,0.00564532,-0.01064507,-0.01908055,0.00195134,-0.004
 60221,-0.00413912,-0.00014752,-0.00010493,0.00017450,-0.00059122,0.000
 34241,0.00035658,-0.00000235,-0.00000591,-0.00000166,-0.00001785,0.000
 01301,0.00001596,0.00003881,-0.00003798,-0.00000681,0.00000214,0.00002
 107,0.00000818,-0.03803743,0.10871239,-0.01530784,0.02339166,-0.042509
 06,0.00019036,-0.00049416,0.00166943,-0.00003638,-0.00005135,-0.000216
 96,0.00013587,-0.00024162,-0.00013048,0.00037350,0.00117298,-0.0017394
 0,-0.00008182,0.00006682,0.00001176,-0.00028136,0.00015092,-0.00003798
 ,0.00006049,-0.00016110,0.00008840,0.00003153,-0.00000639,0.00012152,-
 0.00003952,0.00002798,0.00005284,0.00002267,-0.00002604,-0.00005214,-0
 .00086586,-0.00030454,0.00078169,-0.00022840,0.00013176,-0.00029222,0.
 00013415,-0.00010701,0.00006696,0.00006351,-0.00001844,-0.00002817,-0.
 00000632,-0.00000247,0.00001206,0.00000510,-0.00000206,-0.00000674,0.0
 0009761,-0.00003203,-0.00015950,-0.00000848,0.00011644,0.00009662,-0.0
 0000872,0.00000694,-0.00001219,0.00001188,-0.00000486,0.00004382,-0.00
 007136,-0.00002406,0.00010892,0.00003511,-0.00000928,-0.00006412,0.000
 33547,0.00015794,-0.00017768,-0.00009516,-0.00019647,0.00021420,-0.000
 43836,-0.00005773,0.00022626,0.00052255,-0.00008567,-0.00010165,0.0005
 8088,0.00031929,0.00032187,-0.00051946,0.00026493,0.00009691,-0.001340
 43,-0.00087235,-0.00115407,0.00115070,0.00124958,0.00055896,0.00018659
 ,-0.00281515,-0.00175753,0.00763513,-0.00393753,-0.01721159,0.00936980
 ,-0.01817693,-0.07469493,0.00358938,0.00052536,0.00164389,-0.00040825,
 -0.00003009,0.00027686,-0.00011309,-0.00008730,-0.00125635,-0.00032147
 ,0.00011197,-0.00018589,-0.00026634,-0.00011259,-0.00008593,0.00014260
 ,0.00003835,0.00004460,0.00024220,0.00013912,0.00007331,0.00000087,-0.
 00000162,0.00000171,-0.00000378,0.00000029,0.00000379,0.00000665,0.000
 01074,-0.00006532,0.00000569,0.00001097,0.00000585,-0.00000127,0.00000
 285,-0.00000372,0.00000419,-0.00000123,-0.00000068,-0.00000741,0.00000
 316,0.00000715,0.00001493,0.00000636,0.00001745,0.00000788,-0.00002138
 ,-0.00005245,-0.00040571,-0.00036378,0.00024745,-0.00046321,-0.0011605
 4,0.00035400,0.00003648,0.00000769,-0.00001823,-0.00004206,0.00002434,
 -0.00001522,-0.00124375,-0.00148596,0.00046367,0.00943742,-0.01571752,
 -0.01766765,0.00013576,-0.00024413,-0.00001250,0.00090548,0.00059967,-
 0.00028410,0.00006263,-0.00002623,-0.00000776,-0.00004547,0.00001046,-
 0.00001157,0.00014408,-0.00024133,-0.00004562,-0.00006995,-0.00010276,
 0.00000503,-0.00608723,0.01112063,0.15358969,-0.05560362,-0.03597295,-
 0.01580705,-0.00018575,-0.00071327,-0.00005787,0.00003457,0.00001970,0
 .00061603,0.00017276,-0.00012488,-0.00023446,-0.00230984,0.00088234,-0
 .00032210,0.00008740,0.00011142,0.00004987,0.00095038,0.00082137,0.000
 23118,0.00032937,0.00023556,0.00010958,-0.00002295,-0.00007840,0.00007
 526,0.00006366,0.00008809,-0.00012391,-0.00003451,-0.00002988,0.000054
 95,0.00111141,0.00086262,-0.00010824,0.00013357,-0.00018439,0.00017418
 ,-0.00024688,0.00033170,-0.00033249,-0.00009942,-0.00007509,-0.0000083
 1,-0.00011965,-0.00005856,0.00005023,0.00008206,-0.00001131,-0.0000326
 9,0.00041863,-0.00001441,-0.00055244,-0.00018284,0.00025658,0.00032343
 ,0.00014298,0.00004348,-0.00004848,-0.00016942,-0.00004705,0.00018076,
 -0.00039611,-0.00007716,0.00033443,0.00011075,-0.00016545,-0.00012114,
 0.00132991,0.00079568,-0.00090375,-0.00049221,-0.00059977,0.00070131,-
 0.00136114,-0.00002759,0.00056385,0.00017465,0.00007568,-0.00036831,0.
 00021956,-0.00109033,-0.00000272,-0.00037055,0.00077066,-0.00004319,0.
 00150634,-0.00081038,-0.00071086,-0.00046777,-0.00496130,0.00078705,-0
 .00000370,0.00063589,0.00038483,-0.00026919,-0.00037368,-0.00038792,-0
 .00080491,0.00128972,0.00002253,0.00006111,-0.00004398,-0.00052129,0.0
 0005465,0.00019161,0.00043920,-0.00001607,0.00013405,0.00016546,0.0000
 0569,-0.00006957,-0.00002911,-0.00009263,-0.00001315,-0.00017893,0.000
 01706,0.00001097,0.00013344,0.00008052,0.00014389,0.00010679,-0.000018
 04,-0.00003272,0.00000312,-0.00002734,0.00001400,0.00001779,0.00012385
 ,0.00005456,-0.00026553,0.00002654,0.00003343,0.00002990,0.00002748,0.
 00003295,-0.00002223,0.00003042,0.00002264,-0.00000747,-0.00006410,0.0
 0002216,0.00001423,0.00004885,-0.00000899,0.00003651,0.00004250,-0.000
 06078,-0.00002158,-0.00073802,0.00074312,0.00000794,-0.00058071,0.0004
 3777,0.00002623,-0.00021785,0.00004946,0.00017167,0.00064631,0.0000130
 6,-0.00042011,-0.00039321,-0.00004338,-0.00001273,-0.00082312,0.000115
 47,-0.00068736,-0.00007522,0.00001312,0.00005343,0.00047773,-0.0007753
 1,-0.00055652,-0.00001182,0.00002211,0.00001539,0.00001827,-0.00005644
 ,-0.00001208,-0.00005643,-0.00007735,-0.00003659,-0.00003032,-0.000155
 36,-0.00003113,-0.00515401,0.00028166,-0.00256289,0.06363337,-0.038351
 14,-0.04440304,-0.01119754,0.00000651,-0.00033204,-0.00005209,-0.00006
 537,-0.00033890,0.00032079,-0.00017904,-0.00023581,0.00000911,0.000293
 89,-0.00202445,0.00092365,-0.00015615,-0.00016036,-0.00005658,-0.00012
 050,-0.00237509,0.00033282,-0.00003156,-0.00015301,-0.00002483,-0.0000
 2150,-0.00000077,-0.00000399,0.00004122,0.00002302,0.00000781,-0.00000
 735,0.00002496,0.00000598,-0.00067604,-0.00062789,0.00018630,-0.000025
 94,0.00006823,-0.00009910,0.00029263,-0.00005270,0.00025399,0.00003094
 ,-0.00002025,0.00010798,-0.00006761,-0.00002191,0.00002910,0.00004583,
 -0.00001241,-0.00002388,0.00027499,-0.00004481,-0.00038083,-0.00009705
 ,0.00023599,0.00023032,0.00009326,0.00002049,-0.00002578,-0.00011054,-
 0.00001251,0.00011127,-0.00026081,-0.00003450,0.00023601,0.00006836,-0
 .00012779,-0.00007835,0.00086246,0.00052015,-0.00060829,-0.00033049,-0
 .00037031,0.00044702,-0.00099559,0.00010559,0.00031662,-0.00016608,-0.
 00019457,-0.00040500,-0.00015202,-0.00082333,-0.00029959,-0.00010168,0
 .00056064,0.00007645,0.00056383,-0.00125023,-0.00006993,-0.00279401,0.
 00157949,0.00018193,0.00030844,0.00067921,0.00027875,0.00008927,-0.000
 53787,0.00033457,0.00060787,0.00051363,-0.00027689,-0.00053580,0.00016
 865,-0.00029211,0.00059386,0.00015137,0.00024449,0.00023222,-0.0000419
 1,0.00001589,-0.00005917,-0.00000046,-0.00007606,-0.00021240,-0.000111
 37,-0.00009092,0.00008019,0.00005496,0.00005921,0.00019319,0.00018463,
 0.00007646,-0.00001026,-0.00001576,0.00000020,-0.00001916,0.00000802,0
 .00001256,0.00008443,0.00002434,-0.00016951,0.00001832,0.00002494,0.00
 002095,0.00001266,0.00001583,-0.00001150,0.00001668,0.00000941,-0.0000
 0531,-0.00004524,0.00002029,0.00000965,0.00002880,-0.00001702,0.000021
 85,0.00001025,-0.00006130,-0.00002004,-0.00066285,0.00045424,-0.000045
 86,-0.00031448,-0.00002030,0.00011668,-0.00020804,0.00007383,0.0001846
 4,0.00056509,0.00001392,-0.00032657,-0.00010723,-0.00005122,0.00028769
 ,-0.00048006,-0.00013220,0.00071934,0.00009068,0.00012090,-0.00008804,
 0.00038286,-0.00046808,-0.00035929,0.00001697,0.00000135,0.00001167,0.
 00000075,-0.00004550,-0.00001440,-0.00005792,-0.00006483,0.00001369,-0
 .00007315,-0.00017518,-0.00000950,0.00235982,0.00113510,0.00046769,0.0
 4027142,0.05483885,-0.01294716,-0.00832500,-0.01494519,-0.00029349,-0.
 00001861,-0.00160385,0.00106752,0.00030000,0.00066001,-0.00037849,-0.0
 0002854,0.00003781,-0.00098453,0.00065532,0.00073234,0.00001562,0.0004
 7660,0.00002407,0.00051014,0.00061614,-0.00060804,0.00037890,0.0007842
 6,0.00060559,-0.00000543,0.00005327,-0.00012477,0.00004552,0.00017519,
 -0.00031006,-0.00005875,-0.00012286,0.00015684,0.00044726,0.00038133,-
 0.00014573,0.00005124,-0.00006182,0.00008864,-0.00011556,0.00011914,-0
 .00012077,-0.00000560,-0.00005969,0.00006655,-0.00003439,-0.00000897,0
 .00001945,0.00002438,-0.00000877,-0.00001683,0.00017475,-0.00003637,-0
 .00025476,-0.00005029,0.00017000,0.00015671,0.00004341,0.00001188,-0.0
 0001764,-0.00005036,-0.00000560,0.00007607,-0.00016442,-0.00001641,0.0
 0016095,0.00003779,-0.00010276,-0.00004532,0.00053010,0.00038740,-0.00
 043497,-0.00020376,-0.00023804,0.00029836,-0.00072139,0.00010716,0.000
 25537,-0.00018227,-0.00025915,-0.00023371,-0.00010736,-0.00043422,-0.0
 0025001,-0.00002776,0.00031975,0.00007942,0.00085558,0.00069128,0.0009
 0056,-0.00228395,-0.00288323,0.00336235,0.00005405,0.00037328,0.000374
 80,0.00003571,-0.00038012,0.00024914,-0.00022386,-0.00040172,-0.000590
 05,-0.00081685,0.00025927,-0.00042212,0.00087229,-0.00007904,0.0003106
 7,0.00035790,-0.00016096,-0.00000551,-0.00008112,0.00002188,-0.0000875
 8,-0.00019455,-0.00009219,-0.00007791,0.00008574,0.00003332,0.00005121
 ,0.00018882,0.00014754,0.00006320,-0.00000438,-0.00000761,0.00000026,-
 0.00001195,0.00000438,0.00000792,0.00004852,0.00001413,-0.00011508,0.0
 0001207,0.00001710,0.00001368,0.00000492,0.00000842,-0.00000699,0.0000
 0938,0.00000294,-0.00000291,-0.00003374,0.00001735,0.00000378,0.000014
 08,-0.00001050,0.00001259,-0.00000080,-0.00004397,-0.00001820,0.000137
 46,-0.00005511,0.00016752,-0.00021861,0.00035601,-0.00011297,-0.000135
 47,0.00005048,0.00009287,0.00048452,-0.00000531,-0.00030137,0.00011391
 ,-0.00000265,0.00004609,-0.00015023,0.00014062,-0.00005541,0.00004184,
 0.00006904,-0.00000961,0.00013752,-0.00019249,-0.00019867,0.00003010,-
 0.00000703,0.00000980,0.00000590,-0.00002940,-0.00000604,-0.00005471,-
 0.00001859,0.00002869,-0.00006760,-0.00013305,-0.00000281,-0.00485866,
 0.00036785,-0.00192771,0.01832457,0.00596013,0.01405328,-0.01472666,0.
 01062656,-0.00330072,-0.04910311,0.00705952,0.00288782,0.00320730,-0.0
 0991851,-0.01506758,0.00045189,0.01029689,0.02012153,-0.10406604,-0.02
 712431,-0.00204239,-0.00843849,0.00004409,0.00244987,-0.02680029,0.002
 90886,0.00589897,-0.00028580,0.00167773,0.00276926,0.00035996,-0.00045
 846,-0.00070049,-0.00013523,0.00037794,0.00074684,0.00085938,-0.000498
 46,0.00037854,-0.02772612,0.00482234,0.00104916,0.00017060,0.00203400,
 -0.00384669,0.00212644,-0.00054255,0.00032126,0.00111252,-0.00048011,0
 .00083108,0.00001062,-0.00001205,0.00000118,-0.00000457,0.00000860,0.0
 0000696,-0.00005343,0.00004996,0.00007756,0.00000142,-0.00011112,-0.00
 005307,-0.00004808,0.00000540,-0.00000571,0.00005887,-0.00002007,-0.00
 000815,0.00005669,-0.00001611,-0.00004168,-0.00001351,0.00003111,0.000
 00785,-0.00017864,-0.00001356,0.00005730,0.00010693,-0.00001581,-0.000
 01127,0.00014585,-0.00008338,0.00006166,0.00022130,-0.00003347,0.00014
 213,0.00032923,0.00033828,0.00019250,-0.00006964,-0.00024875,-0.000013
 95,-0.00004815,-0.00061679,-0.00076854,-0.00685696,-0.00007171,-0.0049
 3482,-0.00039159,-0.00041629,0.00006426,0.00033404,0.00026832,0.000244
 48,0.00064915,-0.00042864,0.00010561,0.00009845,-0.00013396,-0.0002168
 8,-0.00031755,0.00002042,0.00002574,-0.00017559,0.00009156,0.00018615,
 0.00006556,-0.00004398,0.00005544,0.00015884,0.00012665,-0.00004074,-0
 .00006754,-0.00007171,0.00003717,-0.00014284,-0.00011714,-0.00000381,0
 .00000381,-0.00000106,0.00000363,0.00000774,-0.00000156,-0.00000368,-0
 .00004029,0.00000924,0.00001992,-0.00000578,-0.00000683,-0.00000626,0.
 00000115,0.00000252,-0.00000165,0.00000016,0.00000100,0.00000210,0.000
 00777,-0.00000874,-0.00000134,0.00000324,0.00000912,0.00000185,0.00001
 113,0.00003660,-0.00000239,-0.00003266,-0.00013296,-0.00015585,0.00034
 019,0.00024972,0.00012054,0.00008830,-0.00002705,-0.00005613,-0.000232
 68,-0.00001830,-0.00001746,-0.00008205,-0.00023377,0.00010629,-0.00012
 612,0.00006531,0.00020878,-0.00000225,-0.00004266,0.00001312,-0.000170
 69,0.00052686,-0.00021028,-0.00002266,0.00000768,-0.00000790,0.0000140
 2,0.00001706,0.00000243,0.00001012,0.00004068,-0.00002075,0.00005815,0
 .00010351,-0.00000985,0.00191423,0.00153216,-0.00430779,-0.00072297,-0
 .00104143,0.00032599,0.22810289,0.00249367,-0.03124272,0.00688590,-0.0
 1319563,-0.06300928,-0.02275589,0.00597116,-0.01437349,-0.01903116,-0.
 00028327,-0.00928076,-0.01385348,-0.00029622,-0.04148239,-0.00471312,0
 .01467888,-0.00039147,-0.00118740,-0.02124772,0.00398029,0.00303910,-0
 .00021881,0.00988848,0.00238645,0.00017424,0.00029160,0.00005959,-0.00
 019031,0.00058485,0.00089020,-0.00073993,-0.00038144,0.00291942,0.0142
 0771,0.00094162,-0.00401475,0.00169814,-0.00116623,0.00237561,0.000601
 13,0.00020647,-0.00028864,-0.00105414,0.00031487,-0.00013213,0.0000204
 3,0.00002397,-0.00001407,-0.00001463,-0.00000466,0.00000154,-0.0000639
 4,-0.00002792,0.00008628,0.00004012,0.00001774,-0.00004461,0.00000119,
 -0.00001313,0.00001889,-0.00000048,0.00002203,-0.00003974,0.00004945,0
 .00003464,-0.00005256,-0.00002113,-0.00000316,0.00002783,-0.00009975,-
 0.00007243,0.00005793,0.00004641,0.00007817,-0.00008543,0.00005469,0.0
 0009875,-0.00007595,-0.00022973,-0.00002237,-0.00016996,-0.00029078,-0
 .00033862,-0.00001412,0.00012076,0.00024861,-0.00010647,-0.00020965,-0
 .00020710,0.00068559,-0.00048242,0.00120284,-0.00133932,0.00036468,0.0
 0025218,-0.00031422,-0.00034236,-0.00043330,-0.00020903,-0.00152743,0.
 00119584,-0.00060705,0.00069642,-0.00001738,0.00090993,-0.00041978,0.0
 0058581,-0.00064925,-0.00016453,0.00004514,-0.00027662,-0.00002415,0.0
 0002023,0.00001758,-0.00008637,-0.00010668,0.00012408,0.00002767,0.000
 07656,-0.00010582,0.00005121,0.00004463,-0.00004930,0.00000088,0.00000
 852,-0.00000336,0.00000280,-0.00000329,-0.00000170,-0.00001049,-0.0000
 1488,0.00004362,-0.00000213,-0.00000273,-0.00000336,-0.00000744,-0.000
 01073,0.00000804,-0.00000743,-0.00000614,0.00000010,0.00000437,0.00000
 301,-0.00000324,-0.00000887,-0.00001739,-0.00000987,-0.00002467,-0.000
 01717,0.00001940,-0.00005380,0.00016247,-0.00006841,-0.00009197,-0.000
 07239,-0.00015464,-0.00011197,0.00002246,0.00008141,0.00005179,0.00004
 805,-0.00005968,0.00006548,0.00032375,0.00011849,0.00046488,-0.0003407
 3,-0.00048407,-0.00002167,0.00004779,-0.00001713,0.00017737,-0.0002735
 4,0.00035230,0.00000568,-0.00000434,0.00000384,-0.00003413,-0.00000076
 ,-0.00000080,0.00003470,-0.00005585,0.00000561,-0.00003290,-0.00003911
 ,0.00001634,0.00297817,0.00061683,0.00708677,-0.00307510,-0.00627235,0
 .00113727,-0.00039835,0.14831773,-0.00037574,0.02072865,-0.02355442,-0
 .01768327,-0.03637891,-0.06974023,0.00406463,-0.01031552,-0.01321715,0
 .00012508,-0.00362079,-0.00353672,0.01148602,-0.00081498,-0.04972284,0
 .02543018,0.00046412,-0.00231799,0.00320827,-0.00092482,-0.00016198,0.
 00370362,-0.01726557,-0.02886011,-0.00037724,0.00000362,0.00169309,-0.
 00029862,0.00012706,0.00161199,0.00062402,0.00438699,-0.00343846,-0.01
 759595,-0.00080460,0.00633180,-0.00248284,0.00189026,-0.00291350,0.000
 24434,-0.00064536,0.00071825,-0.00084444,-0.00024759,-0.00010154,-0.00
 000529,-0.00002691,0.00001019,0.00000636,0.00001127,0.00000586,-0.0000
 0147,0.00006215,0.00001497,-0.00002963,-0.00011407,-0.00001942,-0.0000
 3833,0.00001232,-0.00001832,0.00004496,-0.00003556,0.00002063,0.000014
 68,-0.00004219,-0.00000823,-0.00000230,0.00005015,-0.00001733,-0.00008
 314,-0.00000725,0.00006135,0.00006456,-0.00005188,0.00002878,0.0001945
 3,-0.00014731,-0.00000425,0.00011188,0.00026033,-0.00016071,0.00054147
 ,0.00050610,0.00028692,-0.00022087,-0.00030372,-0.00001525,-0.00116327
 ,0.00000427,0.00043442,-0.00454473,-0.00128606,-0.00395941,-0.00050120
 ,-0.00057341,0.00002381,0.00042821,0.00055059,0.00014338,0.00045873,0.
 00106559,-0.00043833,0.00013801,-0.00026884,-0.00050831,-0.00023498,0.
 00003806,0.00033820,-0.00025844,0.00015942,0.00031316,0.00008968,-0.00
 007971,0.00007995,0.00021249,0.00019502,-0.00013359,-0.00008942,-0.000
 11088,0.00011357,-0.00018408,-0.00014565,0.00003170,0.00000157,-0.0000
 0693,0.00000522,0.00000395,0.00000130,-0.00000204,-0.00002431,0.000022
 66,-0.00000806,-0.00000396,-0.00000475,-0.00000306,0.00000641,0.000009
 62,-0.00000695,0.00000491,0.00000491,0.00000168,0.00000767,-0.00001357
 ,0.00000317,0.00001150,0.00001652,0.00001281,0.00003323,0.00004328,-0.
 00001199,0.00020883,-0.00018297,0.00010963,0.00037753,0.00017900,0.000
 30421,0.00004594,-0.00004538,-0.00004696,-0.00034304,-0.00004938,0.000
 10930,-0.00043679,-0.00018773,0.00055916,-0.00030639,0.00004147,0.0001
 0181,0.00001728,-0.00005872,0.00000975,-0.00013726,0.00043246,-0.00007
 490,-0.00003566,0.00001517,-0.00001132,0.00003033,0.00001218,0.0000011
 4,-0.00001267,0.00004868,-0.00005692,0.00007972,0.00012215,-0.00002268
 ,-0.00136445,-0.00078007,0.00078048,0.00132636,0.00249848,-0.00011401,
 -0.00366715,0.04157725,0.18894662\\-0.00000081,0.00000957,-0.00000090,
 0.00000009,-0.00000010,0.00000432,0.00000345,0.00000199,-0.00000173,-0
 .00000338,-0.00000092,0.00000044,-0.00000235,-0.00000103,0.00000545,0.
 00000074,0.00000316,-0.00000408,-0.00000012,0.00000135,-0.00000689,0.0
 0000053,0.00000102,-0.00000266,-0.00000067,0.00000134,-0.00000096,0.00
 000122,-0.00000067,-0.00000146,0.00000085,0.00000038,-0.00000189,0.000
 00318,0.00000251,-0.00000345,0.00000040,0.00000258,-0.00000226,0.00000
 068,0.00000150,-0.00000372,0.00000108,-0.00000062,-0.00000271,0.000000
 72,-0.00000423,0.00000228,-0.00000375,0.00000005,-0.00000322,0.0000057
 9,-0.00000326,-0.00000168,-0.00000506,-0.00000233,0.00000034,0.0000028
 7,-0.00000209,0.00000039,0.00000176,-0.00000083,0.00000055,0.00000030,
 -0.00000310,0.00000394,-0.00000714,-0.00000100,0.00000056,-0.00000108,
 0.00000473,0.00000110,0.00000221,-0.00000201,-0.00000343,0.00000142,-0
 .00000333,-0.00000288,0.00000086,0.00000343,-0.00000555,0.00001901,-0.
 00000547,0.00001694,-0.00000989,0.00000783,-0.00000023,-0.00000418,0.0
 0000255,-0.00000105,0.00000450,-0.00000289,0.00000130,-0.00000471,0.00
 000253,-0.00001352,-0.00000309,-0.00000437,0.00000182,0.00000192,0.000
 00172,0.00000221,-0.00000762,0.00001658,0.00000427,0.00000095,-0.00000
 282,0.00000052,0.00000307,-0.00001471,0.00000244,-0.00000300,0.0000068
 9,-0.00000354,-0.00000399,-0.00000659,-0.00000085,0.00000022,0.0000000
 3,0.00000295,0.00000230,0.00000043,0.00000810,0.00000119,-0.00000256,-
 0.00000134,0.00000214,-0.00000264,0.00000036,-0.00000128,-0.00000127,0
 .00000028,0.00000159,-0.00000322,0.00000127,0.00000003,-0.00000187,0.0
 0000117,0.00000044,-0.00000100,0.00000073,0.00000028,-0.00000075,0.000
 00164,-0.00000187,-0.00000058,0.00000145,0.00000239,-0.00000123,-0.000
 00015,-0.00000073,0.00000247,-0.00000052,0.00000014,0.00000094,-0.0000
 0025,0.00000110,0.00000213,0.00000217,-0.00000017,0.00000005,-0.000000
 73,-0.00000171,0.00000018,0.00000157,-0.00000256,-0.00000029,0.0000009
 8,0.00000082,0.00000029,0.00000026,-0.00000473,-0.00000035,0.00000079,
 0.00000010,-0.00000106,0.00000380,-0.00000286,-0.00000356,0.00000515,-
 0.00000096,0.00000161,0.00000059,0.00000609,-0.00000075,-0.00000054,0.
 00000170,0.00000106,0.00000110,-0.00000098,0.00000098,-0.00000167,0.00
 000060,0.00000161,-0.00000938\\\@


 MANHOOD BEGINS BY TRYING TO SHAVE FACE,
 AND ENDS BY TRYING TO SAVE FACE.
 Job cpu time:       0 days  6 hours 43 minutes 39.1 seconds.
 File lengths (MBytes):  RWF=   2828 Int=      0 D2E=      0 Chk=     28 Scr=      1
 Normal termination of Gaussian 09 at Thu May 18 12:41:40 2023.
