 Entering Gaussian System, Link 0=g09
 Input=au-1to3-ts-2-af57-cterm-se-wat-ts.com
 Output=au-1to3-ts-2-af57-cterm-se-wat-ts.log
 Initial command:
 /home/scr/programs/g09/l1.exe "/home/scr/guest2/Gau-11565.inp" -scrdir="/home/scr/guest2/"
 Entering Link 1 = /home/scr/programs/g09/l1.exe PID=     11566.
  
 Copyright (c) 1988,1990,1992,1993,1995,1998,2003,2009,2013,
            Gaussian, Inc.  All Rights Reserved.
  
 This is part of the Gaussian(R) 09 program.  It is based on
 the Gaussian(R) 03 system (copyright 2003, Gaussian, Inc.),
 the Gaussian(R) 98 system (copyright 1998, Gaussian, Inc.),
 the Gaussian(R) 94 system (copyright 1995, Gaussian, Inc.),
 the Gaussian 92(TM) system (copyright 1992, Gaussian, Inc.),
 the Gaussian 90(TM) system (copyright 1990, Gaussian, Inc.),
 the Gaussian 88(TM) system (copyright 1988, Gaussian, Inc.),
 the Gaussian 86(TM) system (copyright 1986, Carnegie Mellon
 University), and the Gaussian 82(TM) system (copyright 1983,
 Carnegie Mellon University). Gaussian is a federally registered
 trademark of Gaussian, Inc.
  
 This software contains proprietary and confidential information,
 including trade secrets, belonging to Gaussian, Inc.
  
 This software is provided under written license and may be
 used, copied, transmitted, or stored only in accord with that
 written license.
  
 The following legend is applicable only to US Government
 contracts under FAR:
  
                    RESTRICTED RIGHTS LEGEND
  
 Use, reproduction and disclosure by the US Government is
 subject to restrictions as set forth in subparagraphs (a)
 and (c) of the Commercial Computer Software - Restricted
 Rights clause in FAR 52.227-19.
  
 Gaussian, Inc.
 340 Quinnipiac St., Bldg. 40, Wallingford CT 06492
  
  
 ---------------------------------------------------------------
 Warning -- This program may not be used in any manner that
 competes with the business of Gaussian, Inc. or will provide
 assistance to any competitor of Gaussian, Inc.  The licensee
 of this program is prohibited from giving any competitor of
 Gaussian, Inc. access to this program.  By using this program,
 the user acknowledges that Gaussian, Inc. is engaged in the
 business of creating and licensing software in the field of
 computational chemistry and represents and warrants to the
 licensee that it is not a competitor of Gaussian, Inc. and that
 it will not use this program in any manner prohibited above.
 ---------------------------------------------------------------
  

 Cite this work as:
 Gaussian 09, Revision D.01,
 M. J. Frisch, G. W. Trucks, H. B. Schlegel, G. E. Scuseria, 
 M. A. Robb, J. R. Cheeseman, G. Scalmani, V. Barone, B. Mennucci, 
 G. A. Petersson, H. Nakatsuji, M. Caricato, X. Li, H. P. Hratchian, 
 A. F. Izmaylov, J. Bloino, G. Zheng, J. L. Sonnenberg, M. Hada, 
 M. Ehara, K. Toyota, R. Fukuda, J. Hasegawa, M. Ishida, T. Nakajima, 
 Y. Honda, O. Kitao, H. Nakai, T. Vreven, J. A. Montgomery, Jr., 
 J. E. Peralta, F. Ogliaro, M. Bearpark, J. J. Heyd, E. Brothers, 
 K. N. Kudin, V. N. Staroverov, T. Keith, R. Kobayashi, J. Normand, 
 K. Raghavachari, A. Rendell, J. C. Burant, S. S. Iyengar, J. Tomasi, 
 M. Cossi, N. Rega, J. M. Millam, M. Klene, J. E. Knox, J. B. Cross, 
 V. Bakken, C. Adamo, J. Jaramillo, R. Gomperts, R. E. Stratmann, 
 O. Yazyev, A. J. Austin, R. Cammi, C. Pomelli, J. W. Ochterski, 
 R. L. Martin, K. Morokuma, V. G. Zakrzewski, G. A. Voth, 
 P. Salvador, J. J. Dannenberg, S. Dapprich, A. D. Daniels, 
 O. Farkas, J. B. Foresman, J. V. Ortiz, J. Cioslowski, 
 and D. J. Fox, Gaussian, Inc., Wallingford CT, 2013.
 
 ******************************************
 Gaussian 09:  EM64L-G09RevD.01 24-Apr-2013
                17-May-2023 
 ******************************************
 %mem=50000MB
 %nprocshared=15
 Will use up to   15 processors via shared memory.
 %chk=au-1to3-ts-2-af57-cterm-se-wat-ts.chk
 ----------------------------------------------------------------
 # opt=(ts,readfc,noeigentest) freq=noraman b3lyp/gen pseudo=read
 ----------------------------------------------------------------
 1/5=1,10=3,11=1,14=-1,18=20,26=3,38=1/1,3;
 2/9=110,12=2,17=6,18=5,40=1/2;
 3/5=7,11=2,16=1,17=8,25=1,30=1,71=1,74=-5/1,2,3;
 4//1;
 5/5=2,38=5/2;
 6/7=2,8=2,9=2,10=2,28=1/1;
 7//1,2,3,16;
 1/5=1,11=1,14=-1,18=20,26=3/3(2);
 2/9=110/2;
 99//99;
 2/9=110/2;
 3/5=7,6=1,11=2,16=1,17=8,25=1,30=1,71=1,74=-5,82=7/1,2,3;
 4/5=5,16=3,69=1/1;
 5/5=2,38=5/2;
 7//1,2,3,16;
 1/5=1,11=1,14=-1,18=20,26=3/3(-5);
 2/9=110/2;
 6/7=2,8=2,9=2,10=2,19=2,28=1/1;
 99/9=1/99;
 -------------------
 Title Card Required
 -------------------
 Symbolic Z-matrix:
 Charge =  0 Multiplicity = 1
 Au                   -3.14146  -0.17597   0.04401 
 C                    -6.16004   1.09905  -0.67486 
 H                    -6.31449   1.17416   0.40422 
 H                    -6.15921   0.0398   -0.94978 
 C                    -4.16703   3.14382  -0.01704 
 H                    -3.09433   3.15171   0.20809 
 H                    -4.69954   3.0159    0.93444 
 C                    -7.20756   1.87497  -1.46975 
 H                    -7.26111   2.92718  -1.17509 
 H                    -7.00702   1.8236   -2.54391 
 H                    -8.19303   1.42938  -1.28846 
 C                    -4.56883   4.4252   -0.74982 
 H                    -4.28706   5.29669  -0.14229 
 H                    -4.05935   4.50705  -1.7173 
 H                    -5.6482    4.47176  -0.92843 
 N                     7.73815   3.00942  -0.60179 
 C                     6.31354   2.68283  -0.59674 
 C                     6.03992   1.27153  -0.06189 
 O                     6.73791   0.33617  -0.48178 
 C                     5.78868   2.75259  -2.05171 
 O                     4.46006   2.3009   -2.18852 
 N                     5.06334   1.03878   0.86335 
 C                     4.20235   1.99453   1.54437 
 C                     2.90079   2.30837   0.78227 
 O                     2.87333   3.21961  -0.04292 
 N                     1.78327   1.56171   1.02972 
 C                     1.54483   0.55222   2.04967 
 C                     1.67964  -0.91566   1.60423 
 O                     1.95796  -1.76713   2.44147 
 C                     0.1511    0.74706   2.69635 
 S                    -1.29129   0.97414   1.54883 
 N                     1.39411  -1.20333   0.30041 
 C                     0.85043  -2.51896  -0.04405 
 C                    -0.67288  -2.45195  -0.21477 
 C                     1.47757  -3.0424   -1.35817 
 O                     0.85426  -2.979    -2.40919 
 N                     2.71935  -3.61187  -1.28236 
 C                     3.71896  -3.41303  -0.24613 
 C                     4.82195  -2.48579  -0.75948 
 O                     5.06146  -2.33771  -1.9368 
 O                     5.4903   -1.89301   0.24199 
 H                     5.93199   3.78393  -2.40583 
 H                     6.40506   2.09248  -2.67056 
 H                     3.88361   2.86773  -1.64445 
 H                     5.78878   3.44196  -0.00973 
 H                     8.2419    2.21539  -0.99743 
 H                     8.08164   3.1166    0.3514 
 H                     4.71683   2.94901   1.66018 
 H                     4.01053   1.60859   2.54897 
 H                     4.92777   0.05489   1.08136 
 H                     0.15045   1.69371   3.25124 
 H                    -0.04475  -0.06949   3.3932 
 H                     2.2667    0.66713   2.86151 
 H                     0.96652   1.87207   0.5069 
 H                    -1.1105   -3.44882  -0.324 
 H                    -0.95246  -1.89101  -1.1054 
 H                     1.11041  -3.1738    0.78997 
 H                     1.14755  -0.43357  -0.31101 
 H                     4.18291  -4.37337   0.01878 
 H                     3.2797   -3.01288   0.66758 
 H                     3.11438  -3.77891  -2.2043 
 H                     6.13053  -1.21948  -0.14347 
 Se                   -1.61512  -1.6753    1.36692 
 Cl                   -4.21905  -1.88259  -1.53208 
 S                    -4.41769   1.60829  -1.03491 
 

 GradGradGradGradGradGradGradGradGradGradGradGradGradGradGradGradGradGrad
 Berny optimization.
 Initialization pass.
 No redundant coordinates on chk file, so ReadFC converted to ReadCartesianFC.
 Cartesian force constants read from checkpoint file:
 "au-1to3-ts-2-af57-cterm-se-wat-ts.chk"
 FormGI is forming the generalized inverse of G from B-inverse, IUseBI=4.
                           ----------------------------
                           !    Initial Parameters    !
                           ! (Angstroms and Degrees)  !
 --------------------------                            --------------------------
 ! Name  Definition              Value          Derivative Info.                !
 --------------------------------------------------------------------------------
 ! R1    R(1,31)                 2.6477         D2E/DX2 =    0.0379             !
 ! R2    R(1,63)                 2.5155         D2E/DX2 =    0.0783             !
 ! R3    R(1,64)                 2.5608         D2E/DX2 =    0.0509             !
 ! R4    R(1,65)                 2.4447         D2E/DX2 =    0.0647             !
 ! R5    R(2,3)                  1.0927         D2E/DX2 =    0.3446             !
 ! R6    R(2,4)                  1.0944         D2E/DX2 =    0.3429             !
 ! R7    R(2,8)                  1.5268         D2E/DX2 =    0.286              !
 ! R8    R(2,65)                 1.8506         D2E/DX2 =    0.1748             !
 ! R9    R(5,6)                  1.0961         D2E/DX2 =    0.3377             !
 ! R10   R(5,7)                  1.0978         D2E/DX2 =    0.3351             !
 ! R11   R(5,12)                 1.5298         D2E/DX2 =    0.2826             !
 ! R12   R(5,65)                 1.8592         D2E/DX2 =    0.1704             !
 ! R13   R(8,9)                  1.094          D2E/DX2 =    0.3445             !
 ! R14   R(8,10)                 1.0939         D2E/DX2 =    0.3455             !
 ! R15   R(8,11)                 1.0966         D2E/DX2 =    0.3392             !
 ! R16   R(12,13)                1.0991         D2E/DX2 =    0.3341             !
 ! R17   R(12,14)                1.0965         D2E/DX2 =    0.3401             !
 ! R18   R(12,15)                1.095          D2E/DX2 =    0.3435             !
 ! R19   R(16,17)                1.4616         D2E/DX2 =    0.3364             !
 ! R20   R(16,46)                1.0202         D2E/DX2 =    0.4387             !
 ! R21   R(16,47)                1.0188         D2E/DX2 =    0.4393             !
 ! R22   R(17,18)                1.5338         D2E/DX2 =    0.2507             !
 ! R23   R(17,20)                1.5483         D2E/DX2 =    0.2568             !
 ! R24   R(17,45)                1.0937         D2E/DX2 =    0.3412             !
 ! R25   R(18,19)                1.2403         D2E/DX2 =    0.7333             !
 ! R26   R(18,22)                1.3653         D2E/DX2 =    0.4734             !
 ! R27   R(20,21)                1.41           D2E/DX2 =    0.3729             !
 ! R28   R(20,42)                1.0998         D2E/DX2 =    0.3267             !
 ! R29   R(20,43)                1.0948         D2E/DX2 =    0.3412             !
 ! R30   R(21,44)                0.9745         D2E/DX2 =    0.4829             !
 ! R31   R(22,23)                1.4555         D2E/DX2 =    0.3658             !
 ! R32   R(22,50)                1.0168         D2E/DX2 =    0.4444             !
 ! R33   R(23,24)                1.5406         D2E/DX2 =    0.2515             !
 ! R34   R(23,48)                1.0905         D2E/DX2 =    0.3512             !
 ! R35   R(23,49)                1.0931         D2E/DX2 =    0.3427             !
 ! R36   R(24,25)                1.2297         D2E/DX2 =    0.7796             !
 ! R37   R(24,26)                1.3666         D2E/DX2 =    0.4733             !
 ! R38   R(26,27)                1.4547         D2E/DX2 =    0.3506             !
 ! R39   R(26,54)                1.0182         D2E/DX2 =    0.4407             !
 ! R40   R(27,28)                1.5399         D2E/DX2 =    0.2773             !
 ! R41   R(27,30)                1.5488         D2E/DX2 =    0.2429             !
 ! R42   R(27,53)                1.0924         D2E/DX2 =    0.344              !
 ! R43   R(28,29)                1.2262         D2E/DX2 =    0.7951             !
 ! R44   R(28,32)                1.3654         D2E/DX2 =    0.4366             !
 ! R45   R(30,31)                1.8571         D2E/DX2 =    0.1555             !
 ! R46   R(30,51)                1.0973         D2E/DX2 =    0.3343             !
 ! R47   R(30,52)                1.0912         D2E/DX2 =    0.3503             !
 ! R48   R(32,33)                1.4646         D2E/DX2 =    0.3557             !
 ! R49   R(32,58)                1.0135         D2E/DX2 =    0.4591             !
 ! R50   R(33,34)                1.5343         D2E/DX2 =    0.2588             !
 ! R51   R(33,35)                1.5473         D2E/DX2 =    0.2589             !
 ! R52   R(33,57)                1.0918         D2E/DX2 =    0.347              !
 ! R53   R(34,55)                1.0942         D2E/DX2 =    0.3439             !
 ! R54   R(34,56)                1.0891         D2E/DX2 =    0.3564             !
 ! R55   R(34,63)                1.9982         D2E/DX2 =    0.1379             !
 ! R56   R(35,36)                1.2236         D2E/DX2 =    0.8106             !
 ! R57   R(35,37)                1.3682         D2E/DX2 =    0.4602             !
 ! R58   R(37,38)                1.4535         D2E/DX2 =    0.3509             !
 ! R59   R(37,61)                1.0168         D2E/DX2 =    0.4503             !
 ! R60   R(38,39)                1.5297         D2E/DX2 =    0.2928             !
 ! R61   R(38,59)                1.0989         D2E/DX2 =    0.3299             !
 ! R62   R(38,60)                1.0899         D2E/DX2 =    0.355              !
 ! R63   R(39,40)                1.2105         D2E/DX2 =    0.8695             !
 ! R64   R(39,41)                1.342          D2E/DX2 =    0.4386             !
 ! R65   R(41,62)                1.006          D2E/DX2 =    0.3512             !
 ! A1    A(31,1,63)             62.3551         D2E/DX2 =   -0.001              !
 ! A2    A(31,1,64)            158.9601         D2E/DX2 =    0.0128             !
 ! A3    A(31,1,65)            107.373          D2E/DX2 =    0.0193             !
 ! A4    A(63,1,64)            100.474          D2E/DX2 =    0.0248             !
 ! A5    A(64,1,65)             89.719          D2E/DX2 =    0.0333             !
 ! A6    A(3,2,4)              108.3446         D2E/DX2 =    0.0218             !
 ! A7    A(3,2,8)              112.472          D2E/DX2 =    0.0525             !
 ! A8    A(3,2,65)             107.837          D2E/DX2 =    0.0557             !
 ! A9    A(4,2,8)              111.2001         D2E/DX2 =    0.0517             !
 ! A10   A(4,2,65)             102.5185         D2E/DX2 =    0.0525             !
 ! A11   A(8,2,65)             113.8798         D2E/DX2 =    0.1372             !
 ! A12   A(6,5,7)              107.3093         D2E/DX2 =    0.0213             !
 ! A13   A(6,5,12)             110.4502         D2E/DX2 =    0.0525             !
 ! A14   A(6,5,65)             104.4969         D2E/DX2 =    0.0489             !
 ! A15   A(7,5,12)             112.6648         D2E/DX2 =    0.052              !
 ! A16   A(7,5,65)             108.2314         D2E/DX2 =    0.0534             !
 ! A17   A(12,5,65)            113.2117         D2E/DX2 =    0.1304             !
 ! A18   A(2,8,9)              112.4659         D2E/DX2 =    0.1081             !
 ! A19   A(2,8,10)             111.1968         D2E/DX2 =    0.1075             !
 ! A20   A(2,8,11)             108.9039         D2E/DX2 =    0.1034             !
 ! A21   A(9,8,10)             108.5787         D2E/DX2 =    0.0557             !
 ! A22   A(9,8,11)             107.5955         D2E/DX2 =    0.0525             !
 ! A23   A(10,8,11)            107.9387         D2E/DX2 =    0.0508             !
 ! A24   A(5,12,13)            109.3934         D2E/DX2 =    0.1033             !
 ! A25   A(5,12,14)            111.2923         D2E/DX2 =    0.1079             !
 ! A26   A(5,12,15)            111.8781         D2E/DX2 =    0.1088             !
 ! A27   A(13,12,14)           108.024          D2E/DX2 =    0.0514             !
 ! A28   A(13,12,15)           108.008          D2E/DX2 =    0.0525             !
 ! A29   A(14,12,15)           108.1135         D2E/DX2 =    0.055              !
 ! A30   A(17,16,46)           107.9817         D2E/DX2 =    0.1562             !
 ! A31   A(17,16,47)           110.419          D2E/DX2 =    0.1539             !
 ! A32   A(46,16,47)           106.1542         D2E/DX2 =    0.0578             !
 ! A33   A(16,17,18)           112.376          D2E/DX2 =    0.0649             !
 ! A34   A(16,17,20)           108.4873         D2E/DX2 =    0.0906             !
 ! A35   A(16,17,45)           108.3256         D2E/DX2 =    0.0281             !
 ! A36   A(18,17,20)           107.9785         D2E/DX2 =    0.0765             !
 ! A37   A(18,17,45)           111.4623         D2E/DX2 =    0.0288             !
 ! A38   A(20,17,45)           108.0853         D2E/DX2 =    0.0354             !
 ! A39   A(17,18,19)           118.3882         D2E/DX2 =    0.2139             !
 ! A40   A(17,18,22)           121.3838         D2E/DX2 =    0.2816             !
 ! A41   A(19,18,22)           120.2251         D2E/DX2 =    0.3008             !
 ! A42   A(17,20,21)           113.3398         D2E/DX2 =    0.1901             !
 ! A43   A(17,20,42)           107.4969         D2E/DX2 =    0.0759             !
 ! A44   A(17,20,43)           108.2502         D2E/DX2 =    0.0815             !
 ! A45   A(21,20,42)           113.0758         D2E/DX2 =    0.069              !
 ! A46   A(21,20,43)           106.4105         D2E/DX2 =    0.0656             !
 ! A47   A(42,20,43)           108.0605         D2E/DX2 =    0.0275             !
 ! A48   A(20,21,44)           108.4761         D2E/DX2 =    0.214              !
 ! A49   A(18,22,23)           128.923          D2E/DX2 =    0.463              !
 ! A50   A(18,22,50)           113.9304         D2E/DX2 =    0.1832             !
 ! A51   A(23,22,50)           117.1404         D2E/DX2 =    0.1931             !
 ! A52   A(22,23,24)           113.7074         D2E/DX2 =    0.3419             !
 ! A53   A(22,23,48)           110.2039         D2E/DX2 =    0.1188             !
 ! A54   A(22,23,49)           107.5759         D2E/DX2 =    0.1136             !
 ! A55   A(24,23,48)           105.8317         D2E/DX2 =    0.0707             !
 ! A56   A(24,23,49)           112.2276         D2E/DX2 =    0.084              !
 ! A57   A(48,23,49)           107.1105         D2E/DX2 =    0.0258             !
 ! A58   A(23,24,25)           120.1196         D2E/DX2 =    0.2683             !
 ! A59   A(23,24,26)           119.3402         D2E/DX2 =    0.5786             !
 ! A60   A(25,24,26)           120.5398         D2E/DX2 =    0.2939             !
 ! A61   A(24,26,27)           129.8015         D2E/DX2 =    0.552              !
 ! A62   A(24,26,54)           113.3554         D2E/DX2 =    0.2058             !
 ! A63   A(27,26,54)           116.1074         D2E/DX2 =    0.2076             !
 ! A64   A(26,27,28)           116.3799         D2E/DX2 =    0.279              !
 ! A65   A(26,27,30)           110.6678         D2E/DX2 =    0.2536             !
 ! A66   A(26,27,53)           109.8614         D2E/DX2 =    0.0299             !
 ! A67   A(28,27,30)           108.6322         D2E/DX2 =    0.0592             !
 ! A68   A(28,27,53)           104.9157         D2E/DX2 =    0.0301             !
 ! A69   A(30,27,53)           105.7307         D2E/DX2 =    0.0328             !
 ! A70   A(27,28,29)           118.9665         D2E/DX2 =    0.1646             !
 ! A71   A(27,28,32)           117.3071         D2E/DX2 =    0.1238             !
 ! A72   A(29,28,32)           123.5875         D2E/DX2 =    0.1808             !
 ! A73   A(27,30,31)           117.15           D2E/DX2 =    0.0805             !
 ! A74   A(27,30,51)           108.6764         D2E/DX2 =    0.0655             !
 ! A75   A(27,30,52)           109.513          D2E/DX2 =    0.0674             !
 ! A76   A(31,30,51)           101.9184         D2E/DX2 =    0.044              !
 ! A77   A(31,30,52)           110.2855         D2E/DX2 =    0.0482             !
 ! A78   A(51,30,52)           108.8161         D2E/DX2 =    0.0259             !
 ! A79   A(1,31,30)            147.2251         D2E/DX2 =    0.0323             !
 ! A80   A(28,32,33)           119.4366         D2E/DX2 =    0.1821             !
 ! A81   A(28,32,58)           117.836          D2E/DX2 =    0.0818             !
 ! A82   A(33,32,58)           116.748          D2E/DX2 =    0.1214             !
 ! A83   A(32,33,34)           110.823          D2E/DX2 =    0.0596             !
 ! A84   A(32,33,35)           110.6806         D2E/DX2 =    0.1667             !
 ! A85   A(32,33,57)           105.7073         D2E/DX2 =    0.0432             !
 ! A86   A(34,33,35)           108.8247         D2E/DX2 =    0.162              !
 ! A87   A(34,33,57)           110.3414         D2E/DX2 =    0.0336             !
 ! A88   A(35,33,57)           110.4484         D2E/DX2 =    0.0285             !
 ! A89   A(33,34,55)           111.6176         D2E/DX2 =    0.0632             !
 ! A90   A(33,34,56)           111.6148         D2E/DX2 =    0.0625             !
 ! A91   A(33,34,63)           113.3947         D2E/DX2 =    0.0713             !
 ! A92   A(55,34,56)           106.5564         D2E/DX2 =    0.0273             !
 ! A93   A(55,34,63)           104.1546         D2E/DX2 =    0.0444             !
 ! A94   A(56,34,63)           109.0316         D2E/DX2 =    0.0403             !
 ! A95   A(33,35,36)           120.3651         D2E/DX2 =    0.262              !
 ! A96   A(33,35,37)           117.4894         D2E/DX2 =    0.4876             !
 ! A97   A(36,35,37)           122.1065         D2E/DX2 =    0.2706             !
 ! A98   A(35,37,38)           127.3551         D2E/DX2 =    0.5031             !
 ! A99   A(35,37,61)           111.7601         D2E/DX2 =    0.1313             !
 ! A100  A(38,37,61)           113.6846         D2E/DX2 =    0.1833             !
 ! A101  A(37,38,39)           109.8512         D2E/DX2 =    0.3814             !
 ! A102  A(37,38,59)           110.0389         D2E/DX2 =    0.0848             !
 ! A103  A(37,38,60)           111.7605         D2E/DX2 =    0.0865             !
 ! A104  A(39,38,59)           107.8308         D2E/DX2 =    0.0797             !
 ! A105  A(39,38,60)           110.4503         D2E/DX2 =    0.0975             !
 ! A106  A(59,38,60)           106.7911         D2E/DX2 =    0.0277             !
 ! A107  A(38,39,40)           122.9021         D2E/DX2 =    0.1926             !
 ! A108  A(38,39,41)           112.1118         D2E/DX2 =    0.2679             !
 ! A109  A(40,39,41)           124.974          D2E/DX2 =    0.2195             !
 ! A110  A(39,41,62)           109.0707         D2E/DX2 =    0.2428             !
 ! A111  A(1,63,34)             95.8256         D2E/DX2 =    0.1307             !
 ! A112  A(1,65,2)             101.8183         D2E/DX2 =    0.0365             !
 ! A113  A(1,65,5)             106.9052         D2E/DX2 =    0.0275             !
 ! A114  A(2,65,5)             104.3401         D2E/DX2 =    0.0545             !
 ! A115  L(63,1,65,31,-1)      169.7281         D2E/DX2 =    0.0193             !
 ! A116  L(63,1,65,31,-2)      180.8461         D2E/DX2 =    0.024              !
 ! D1    D(63,1,31,30)           2.7594         D2E/DX2 =    0.0283             !
 ! D2    D(64,1,31,30)         -35.0488         D2E/DX2 =    0.0079             !
 ! D3    D(65,1,31,30)        -178.0866         D2E/DX2 =    0.0138             !
 ! D4    D(31,1,63,34)        -112.4341         D2E/DX2 =    0.0263             !
 ! D5    D(64,1,63,34)          54.6327         D2E/DX2 =    0.0168             !
 ! D6    D(34,63,65,2)         118.3812         D2E/DX2 =    0.0185             !
 ! D7    D(34,63,65,5)        -133.0844         D2E/DX2 =    0.0175             !
 ! D8    D(31,1,65,2)         -130.421          D2E/DX2 =    0.0133             !
 ! D9    D(31,1,65,5)          -21.2697         D2E/DX2 =    0.0151             !
 ! D10   D(64,1,65,2)           62.0459         D2E/DX2 =    0.014              !
 ! D11   D(64,1,65,5)          171.1972         D2E/DX2 =    0.0129             !
 ! D12   D(3,2,8,9)             55.3851         D2E/DX2 =    0.015              !
 ! D13   D(3,2,8,10)           177.4011         D2E/DX2 =    0.0145             !
 ! D14   D(3,2,8,11)           -63.7835         D2E/DX2 =    0.0147             !
 ! D15   D(4,2,8,9)            177.1044         D2E/DX2 =    0.015              !
 ! D16   D(4,2,8,10)           -60.8795         D2E/DX2 =    0.0157             !
 ! D17   D(4,2,8,11)            57.9358         D2E/DX2 =    0.0153             !
 ! D18   D(65,2,8,9)           -67.6832         D2E/DX2 =    0.0145             !
 ! D19   D(65,2,8,10)           54.3328         D2E/DX2 =    0.0143             !
 ! D20   D(65,2,8,11)          173.1482         D2E/DX2 =    0.0145             !
 ! D21   D(3,2,65,1)            66.2929         D2E/DX2 =    0.0144             !
 ! D22   D(3,2,65,5)           -44.8155         D2E/DX2 =    0.0146             !
 ! D23   D(4,2,65,1)           -47.9196         D2E/DX2 =    0.0171             !
 ! D24   D(4,2,65,5)          -159.0279         D2E/DX2 =    0.0167             !
 ! D25   D(8,2,65,1)          -168.1455         D2E/DX2 =    0.0132             !
 ! D26   D(8,2,65,5)            80.7462         D2E/DX2 =    0.0149             !
 ! D27   D(6,5,12,13)          -56.6286         D2E/DX2 =    0.0149             !
 ! D28   D(6,5,12,14)           62.663          D2E/DX2 =    0.0154             !
 ! D29   D(6,5,12,15)         -176.268          D2E/DX2 =    0.0146             !
 ! D30   D(7,5,12,13)           63.3604         D2E/DX2 =    0.0145             !
 ! D31   D(7,5,12,14)         -177.3481         D2E/DX2 =    0.0144             !
 ! D32   D(7,5,12,15)          -56.2791         D2E/DX2 =    0.0149             !
 ! D33   D(65,5,12,13)        -173.4113         D2E/DX2 =    0.0142             !
 ! D34   D(65,5,12,14)         -54.1198         D2E/DX2 =    0.0139             !
 ! D35   D(65,5,12,15)          66.9492         D2E/DX2 =    0.014              !
 ! D36   D(6,5,65,1)            43.755          D2E/DX2 =    0.0163             !
 ! D37   D(6,5,65,2)           151.1308         D2E/DX2 =    0.0178             !
 ! D38   D(7,5,65,1)           -70.3697         D2E/DX2 =    0.0151             !
 ! D39   D(7,5,65,2)            37.0061         D2E/DX2 =    0.0153             !
 ! D40   D(12,5,65,1)          163.9901         D2E/DX2 =    0.0144             !
 ! D41   D(12,5,65,2)          -88.6341         D2E/DX2 =    0.0175             !
 ! D42   D(46,16,17,18)         46.0573         D2E/DX2 =    0.018              !
 ! D43   D(46,16,17,20)        -73.2571         D2E/DX2 =    0.0185             !
 ! D44   D(46,16,17,45)        169.6424         D2E/DX2 =    0.0141             !
 ! D45   D(47,16,17,18)        -69.5977         D2E/DX2 =    0.0166             !
 ! D46   D(47,16,17,20)        171.088          D2E/DX2 =    0.0175             !
 ! D47   D(47,16,17,45)         53.9874         D2E/DX2 =    0.0128             !
 ! D48   D(16,17,18,19)        -46.2873         D2E/DX2 =    0.0204             !
 ! D49   D(16,17,18,22)        133.1014         D2E/DX2 =    0.0232             !
 ! D50   D(20,17,18,19)         73.3237         D2E/DX2 =    0.0367             !
 ! D51   D(20,17,18,22)       -107.2876         D2E/DX2 =    0.0522             !
 ! D52   D(45,17,18,19)       -168.1041         D2E/DX2 =    0.0146             !
 ! D53   D(45,17,18,22)         11.2846         D2E/DX2 =    0.0183             !
 ! D54   D(16,17,20,21)        172.8961         D2E/DX2 =    0.023              !
 ! D55   D(16,17,20,42)        -61.399          D2E/DX2 =    0.0187             !
 ! D56   D(16,17,20,43)         55.103          D2E/DX2 =    0.0199             !
 ! D57   D(18,17,20,21)         50.8568         D2E/DX2 =    0.0249             !
 ! D58   D(18,17,20,42)        176.5617         D2E/DX2 =    0.0214             !
 ! D59   D(18,17,20,43)        -66.9363         D2E/DX2 =    0.0205             !
 ! D60   D(45,17,20,21)        -69.8494         D2E/DX2 =    0.0196             !
 ! D61   D(45,17,20,42)         55.8555         D2E/DX2 =    0.0155             !
 ! D62   D(45,17,20,43)        172.3575         D2E/DX2 =    0.0166             !
 ! D63   D(17,18,22,23)         -3.8354         D2E/DX2 =    0.0216             !
 ! D64   D(17,18,22,50)        175.2227         D2E/DX2 =    0.0119             !
 ! D65   D(19,18,22,23)        175.5422         D2E/DX2 =    0.0408             !
 ! D66   D(19,18,22,50)         -5.3997         D2E/DX2 =    0.017              !
 ! D67   D(17,20,21,44)         60.9034         D2E/DX2 =    0.0231             !
 ! D68   D(42,20,21,44)        -61.7638         D2E/DX2 =    0.0265             !
 ! D69   D(43,20,21,44)        179.7616         D2E/DX2 =    0.0284             !
 ! D70   D(18,22,23,24)         88.5313         D2E/DX2 =    0.0358             !
 ! D71   D(18,22,23,48)        -30.0949         D2E/DX2 =    0.0152             !
 ! D72   D(18,22,23,49)       -146.5454         D2E/DX2 =    0.028              !
 ! D73   D(50,22,23,24)        -90.5013         D2E/DX2 =    0.0256             !
 ! D74   D(50,22,23,48)        150.8725         D2E/DX2 =    0.0233             !
 ! D75   D(50,22,23,49)         34.422          D2E/DX2 =    0.0162             !
 ! D76   D(22,23,24,25)        -88.8473         D2E/DX2 =    0.0984             !
 ! D77   D(22,23,24,26)         90.9096         D2E/DX2 =    0.1892             !
 ! D78   D(48,23,24,25)         32.2564         D2E/DX2 =    0.0205             !
 ! D79   D(48,23,24,26)       -147.9867         D2E/DX2 =    0.0581             !
 ! D80   D(49,23,24,25)        148.7596         D2E/DX2 =    0.0268             !
 ! D81   D(49,23,24,26)        -31.4835         D2E/DX2 =    0.0426             !
 ! D82   D(23,24,26,27)          7.8801         D2E/DX2 =    0.0464             !
 ! D83   D(23,24,26,54)        177.5226         D2E/DX2 =    0.0593             !
 ! D84   D(25,24,26,27)       -172.364          D2E/DX2 =    0.0781             !
 ! D85   D(25,24,26,54)         -2.7215         D2E/DX2 =    0.0248             !
 ! D86   D(24,26,27,28)        -99.4009         D2E/DX2 =    0.1506             !
 ! D87   D(24,26,27,30)        135.9707         D2E/DX2 =    0.0851             !
 ! D88   D(24,26,27,53)         19.5885         D2E/DX2 =    0.0287             !
 ! D89   D(54,26,27,28)         91.191          D2E/DX2 =    0.0431             !
 ! D90   D(54,26,27,30)        -33.4374         D2E/DX2 =    0.0244             !
 ! D91   D(54,26,27,53)       -149.8196         D2E/DX2 =    0.0254             !
 ! D92   D(26,27,28,29)        154.6369         D2E/DX2 =    0.1051             !
 ! D93   D(26,27,28,32)        -29.4924         D2E/DX2 =    0.0808             !
 ! D94   D(30,27,28,29)        -79.7021         D2E/DX2 =    0.0165             !
 ! D95   D(30,27,28,32)         96.1686         D2E/DX2 =    0.0375             !
 ! D96   D(53,27,28,29)         32.9975         D2E/DX2 =    0.0152             !
 ! D97   D(53,27,28,32)       -151.1319         D2E/DX2 =    0.0341             !
 ! D98   D(26,27,30,31)         48.4838         D2E/DX2 =    0.0229             !
 ! D99   D(26,27,30,51)        -66.246          D2E/DX2 =    0.0326             !
 ! D100  D(26,27,30,52)        175.0038         D2E/DX2 =    0.0345             !
 ! D101  D(28,27,30,31)        -80.4437         D2E/DX2 =    0.0497             !
 ! D102  D(28,27,30,51)        164.8265         D2E/DX2 =    0.0281             !
 ! D103  D(28,27,30,52)         46.0763         D2E/DX2 =    0.0276             !
 ! D104  D(53,27,30,31)        167.3978         D2E/DX2 =    0.0241             !
 ! D105  D(53,27,30,51)         52.668          D2E/DX2 =    0.0149             !
 ! D106  D(53,27,30,52)        -66.0822         D2E/DX2 =    0.0143             !
 ! D107  D(27,28,32,33)       -149.4372         D2E/DX2 =    0.0964             !
 ! D108  D(27,28,32,58)          2.4948         D2E/DX2 =    0.0506             !
 ! D109  D(29,28,32,33)         26.2256         D2E/DX2 =    0.0449             !
 ! D110  D(29,28,32,58)        178.1576         D2E/DX2 =    0.0348             !
 ! D111  D(27,30,31,1)          84.4238         D2E/DX2 =    0.0392             !
 ! D112  D(51,30,31,1)        -157.1487         D2E/DX2 =    0.0274             !
 ! D113  D(52,30,31,1)         -41.7159         D2E/DX2 =    0.0236             !
 ! D114  D(28,32,33,34)         99.1873         D2E/DX2 =    0.0267             !
 ! D115  D(28,32,33,35)       -139.9778         D2E/DX2 =    0.092              !
 ! D116  D(28,32,33,57)        -20.3695         D2E/DX2 =    0.027              !
 ! D117  D(58,32,33,34)        -53.0422         D2E/DX2 =    0.0242             !
 ! D118  D(58,32,33,35)         67.7927         D2E/DX2 =    0.0445             !
 ! D119  D(58,32,33,57)       -172.599          D2E/DX2 =    0.024              !
 ! D120  D(32,33,34,55)       -171.4933         D2E/DX2 =    0.0196             !
 ! D121  D(32,33,34,56)         69.3813         D2E/DX2 =    0.024              !
 ! D122  D(32,33,34,63)        -54.2324         D2E/DX2 =    0.0255             !
 ! D123  D(35,33,34,55)         66.5792         D2E/DX2 =    0.0325             !
 ! D124  D(35,33,34,56)        -52.5461         D2E/DX2 =    0.0259             !
 ! D125  D(35,33,34,63)       -176.1598         D2E/DX2 =    0.0559             !
 ! D126  D(57,33,34,55)        -54.7559         D2E/DX2 =    0.0153             !
 ! D127  D(57,33,34,56)       -173.8812         D2E/DX2 =    0.0174             !
 ! D128  D(57,33,34,63)         62.5051         D2E/DX2 =    0.016              !
 ! D129  D(32,33,35,36)       -101.8697         D2E/DX2 =    0.0679             !
 ! D130  D(32,33,35,37)         80.3532         D2E/DX2 =    0.1697             !
 ! D131  D(34,33,35,36)         20.1442         D2E/DX2 =    0.0432             !
 ! D132  D(34,33,35,37)       -157.6329         D2E/DX2 =    0.1155             !
 ! D133  D(57,33,35,36)        141.4138         D2E/DX2 =    0.0359             !
 ! D134  D(57,33,35,37)        -36.3633         D2E/DX2 =    0.0552             !
 ! D135  D(33,34,63,1)         135.0926         D2E/DX2 =    0.0344             !
 ! D136  D(55,34,63,1)        -103.368          D2E/DX2 =    0.0219             !
 ! D137  D(56,34,63,1)          10.077          D2E/DX2 =    0.0234             !
 ! D138  D(33,35,37,38)        -22.1531         D2E/DX2 =    0.0983             !
 ! D139  D(33,35,37,61)       -170.2361         D2E/DX2 =    0.0659             !
 ! D140  D(36,35,37,38)        160.1112         D2E/DX2 =    0.1245             !
 ! D141  D(36,35,37,61)         12.0282         D2E/DX2 =    0.0389             !
 ! D142  D(35,37,38,39)       -103.7331         D2E/DX2 =    0.0854             !
 ! D143  D(35,37,38,59)        137.6981         D2E/DX2 =    0.0361             !
 ! D144  D(35,37,38,60)         19.229          D2E/DX2 =    0.0244             !
 ! D145  D(61,37,38,39)         43.843          D2E/DX2 =    0.0414             !
 ! D146  D(61,37,38,59)        -74.7258         D2E/DX2 =    0.0177             !
 ! D147  D(61,37,38,60)        166.8051         D2E/DX2 =    0.0315             !
 ! D148  D(37,38,39,40)        -23.3496         D2E/DX2 =    0.0253             !
 ! D149  D(37,38,39,41)        157.8592         D2E/DX2 =    0.0562             !
 ! D150  D(59,38,39,40)         96.5722         D2E/DX2 =    0.0249             !
 ! D151  D(59,38,39,41)        -82.219          D2E/DX2 =    0.0272             !
 ! D152  D(60,38,39,40)       -147.0802         D2E/DX2 =    0.0258             !
 ! D153  D(60,38,39,41)         34.1286         D2E/DX2 =    0.0235             !
 ! D154  D(38,39,41,62)       -173.686          D2E/DX2 =    0.0595             !
 ! D155  D(40,39,41,62)          7.5526         D2E/DX2 =    0.024              !
 --------------------------------------------------------------------------------
 Trust Radius=3.00D-01 FncErr=1.00D-07 GrdErr=1.00D-06
 Number of steps in this run=    346 maximum allowed number of steps=    390.
 Search for a saddle point of order  1.
 GradGradGradGradGradGradGradGradGradGradGradGradGradGradGradGradGradGrad

 Stoichiometry    C17H31AuClN5O7S2Se
 Framework group  C1[X(C17H31AuClN5O7S2Se)]
 Deg. of freedom   189
 Full point group                 C1      NOp   1
 Largest Abelian subgroup         C1      NOp   1
 Largest concise Abelian subgroup C1      NOp   1
                         Standard orientation:                         
 ---------------------------------------------------------------------
 Center     Atomic      Atomic             Coordinates (Angstroms)
 Number     Number       Type             X           Y           Z
 ---------------------------------------------------------------------
      1         79           0       -3.141456   -0.175974    0.044009
      2          6           0       -6.160041    1.099054   -0.674863
      3          1           0       -6.314494    1.174161    0.404216
      4          1           0       -6.159210    0.039797   -0.949778
      5          6           0       -4.167031    3.143824   -0.017040
      6          1           0       -3.094329    3.151714    0.208090
      7          1           0       -4.699544    3.015903    0.934441
      8          6           0       -7.207564    1.874968   -1.469751
      9          1           0       -7.261110    2.927175   -1.175094
     10          1           0       -7.007023    1.823603   -2.543907
     11          1           0       -8.193032    1.429382   -1.288456
     12          6           0       -4.568831    4.425200   -0.749815
     13          1           0       -4.287061    5.296686   -0.142291
     14          1           0       -4.059349    4.507048   -1.717303
     15          1           0       -5.648201    4.471759   -0.928431
     16          7           0        7.738148    3.009423   -0.601792
     17          6           0        6.313538    2.682825   -0.596738
     18          6           0        6.039919    1.271528   -0.061890
     19          8           0        6.737912    0.336166   -0.481776
     20          6           0        5.788683    2.752585   -2.051705
     21          8           0        4.460063    2.300901   -2.188521
     22          7           0        5.063340    1.038783    0.863346
     23          6           0        4.202355    1.994525    1.544371
     24          6           0        2.900793    2.308368    0.782267
     25          8           0        2.873331    3.219613   -0.042916
     26          7           0        1.783265    1.561705    1.029722
     27          6           0        1.544829    0.552215    2.049673
     28          6           0        1.679637   -0.915663    1.604226
     29          8           0        1.957964   -1.767132    2.441474
     30          6           0        0.151104    0.747063    2.696351
     31         16           0       -1.291289    0.974142    1.548834
     32          7           0        1.394112   -1.203327    0.300405
     33          6           0        0.850432   -2.518963   -0.044047
     34          6           0       -0.672883   -2.451952   -0.214771
     35          6           0        1.477572   -3.042402   -1.358170
     36          8           0        0.854260   -2.978996   -2.409190
     37          7           0        2.719353   -3.611870   -1.282355
     38          6           0        3.718964   -3.413030   -0.246132
     39          6           0        4.821951   -2.485787   -0.759484
     40          8           0        5.061459   -2.337713   -1.936801
     41          8           0        5.490303   -1.893011    0.241988
     42          1           0        5.931993    3.783930   -2.405834
     43          1           0        6.405064    2.092485   -2.670564
     44          1           0        3.883612    2.867729   -1.644454
     45          1           0        5.788775    3.441961   -0.009729
     46          1           0        8.241899    2.215387   -0.997430
     47          1           0        8.081638    3.116604    0.351396
     48          1           0        4.716825    2.949013    1.660180
     49          1           0        4.010530    1.608590    2.548966
     50          1           0        4.927768    0.054893    1.081362
     51          1           0        0.150452    1.693712    3.251242
     52          1           0       -0.044745   -0.069489    3.393197
     53          1           0        2.266696    0.667128    2.861511
     54          1           0        0.966518    1.872065    0.506904
     55          1           0       -1.110504   -3.448817   -0.323998
     56          1           0       -0.952458   -1.891006   -1.105403
     57          1           0        1.110412   -3.173800    0.789974
     58          1           0        1.147552   -0.433565   -0.311014
     59          1           0        4.182906   -4.373371    0.018779
     60          1           0        3.279705   -3.012884    0.667583
     61          1           0        3.114384   -3.778905   -2.204298
     62          1           0        6.130534   -1.219479   -0.143465
     63         34           0       -1.615119   -1.675296    1.366921
     64         17           0       -4.219055   -1.882587   -1.532083
     65         16           0       -4.417685    1.608286   -1.034912
 ---------------------------------------------------------------------
 Rotational constants (GHZ):      0.1256380      0.0402863      0.0353479
 General basis read from cards:  (5D, 7F)
 ======================================================================================================
                                       Pseudopotential Parameters
 ======================================================================================================
  Center     Atomic      Valence      Angular      Power
  Number     Number     Electrons     Momentum     of R      Exponent        Coefficient   SO-Coeffient
 ======================================================================================================
    1         79           19
                                      G and up 
                                                     1      622.6287956      -60.00000000    0.00000000
                                                     2      136.2843607     -555.52923120    0.00000000
                                                     2       33.1549781     -168.00197850    0.00000000
                                                     2        9.9894895      -63.03998750    0.00000000
                                                     2        3.0481312       -4.25166810    0.00000000
                                      S - G
                                                     0      194.7374304        3.00000000    0.00000000
                                                     1      351.5327447       38.60208800    0.00000000
                                                     2      122.3270402      864.83707270    0.00000000
                                                     2       32.0914617      374.99355200    0.00000000
                                                     2        5.2451812      289.79101000    0.00000000
                                                     2        4.4916223     -152.45327730    0.00000000
                                      P - G
                                                     0      420.6158801        2.00000000    0.00000000
                                                     1      109.4417815       73.88856250    0.00000000
                                                     2       34.1714280      326.67298720    0.00000000
                                                     2        5.9879750      126.58145910    0.00000000
                                      D - G
                                                     0      219.2666158        3.00000000    0.00000000
                                                     1      122.7297786       55.67931490    0.00000000
                                                     2       63.1063369      449.19873350    0.00000000
                                                     2       18.3684520      215.02690910    0.00000000
                                                     2        4.4972844       64.08409950    0.00000000
                                      F - G
                                                     0      108.5506037        4.00000000    0.00000000
                                                     1       56.4795527       51.80653350    0.00000000
                                                     2       29.2069159      231.21831130    0.00000000
                                                     2        9.5440543      119.00473860    0.00000000
                                                     2        2.8965118       15.34241880    0.00000000
    2          6
                                   No pseudopotential on this center.
    3          1
                                   No pseudopotential on this center.
    4          1
                                   No pseudopotential on this center.
    5          6
                                   No pseudopotential on this center.
    6          1
                                   No pseudopotential on this center.
    7          1
                                   No pseudopotential on this center.
    8          6
                                   No pseudopotential on this center.
    9          1
                                   No pseudopotential on this center.
   10          1
                                   No pseudopotential on this center.
   11          1
                                   No pseudopotential on this center.
   12          6
                                   No pseudopotential on this center.
   13          1
                                   No pseudopotential on this center.
   14          1
                                   No pseudopotential on this center.
   15          1
                                   No pseudopotential on this center.
   16          7
                                   No pseudopotential on this center.
   17          6
                                   No pseudopotential on this center.
   18          6
                                   No pseudopotential on this center.
   19          8
                                   No pseudopotential on this center.
   20          6
                                   No pseudopotential on this center.
   21          8
                                   No pseudopotential on this center.
   22          7
                                   No pseudopotential on this center.
   23          6
                                   No pseudopotential on this center.
   24          6
                                   No pseudopotential on this center.
   25          8
                                   No pseudopotential on this center.
   26          7
                                   No pseudopotential on this center.
   27          6
                                   No pseudopotential on this center.
   28          6
                                   No pseudopotential on this center.
   29          8
                                   No pseudopotential on this center.
   30          6
                                   No pseudopotential on this center.
   31         16
                                   No pseudopotential on this center.
   32          7
                                   No pseudopotential on this center.
   33          6
                                   No pseudopotential on this center.
   34          6
                                   No pseudopotential on this center.
   35          6
                                   No pseudopotential on this center.
   36          8
                                   No pseudopotential on this center.
   37          7
                                   No pseudopotential on this center.
   38          6
                                   No pseudopotential on this center.
   39          6
                                   No pseudopotential on this center.
   40          8
                                   No pseudopotential on this center.
   41          8
                                   No pseudopotential on this center.
   42          1
                                   No pseudopotential on this center.
   43          1
                                   No pseudopotential on this center.
   44          1
                                   No pseudopotential on this center.
   45          1
                                   No pseudopotential on this center.
   46          1
                                   No pseudopotential on this center.
   47          1
                                   No pseudopotential on this center.
   48          1
                                   No pseudopotential on this center.
   49          1
                                   No pseudopotential on this center.
   50          1
                                   No pseudopotential on this center.
   51          1
                                   No pseudopotential on this center.
   52          1
                                   No pseudopotential on this center.
   53          1
                                   No pseudopotential on this center.
   54          1
                                   No pseudopotential on this center.
   55          1
                                   No pseudopotential on this center.
   56          1
                                   No pseudopotential on this center.
   57          1
                                   No pseudopotential on this center.
   58          1
                                   No pseudopotential on this center.
   59          1
                                   No pseudopotential on this center.
   60          1
                                   No pseudopotential on this center.
   61          1
                                   No pseudopotential on this center.
   62          1
                                   No pseudopotential on this center.
   63         34
                                   No pseudopotential on this center.
   64         17
                                   No pseudopotential on this center.
   65         16
                                   No pseudopotential on this center.
 ======================================================================================================
 There are   632 symmetry adapted cartesian basis functions of A   symmetry.
 There are   592 symmetry adapted basis functions of A   symmetry.
   592 basis functions,  1223 primitive gaussians,   632 cartesian basis functions
   163 alpha electrons      163 beta electrons
       nuclear repulsion energy      5686.0222532001 Hartrees.
 NAtoms=   65 NActive=   65 NUniq=   65 SFac= 1.00D+00 NAtFMM=   60 NAOKFM=T Big=T
 Integral buffers will be    131072 words long.
 Raffenetti 2 integral format.
 Two-electron integral symmetry is turned on.
 One-electron integrals computed using PRISM.
   1 Symmetry operations used in ECPInt.
 ECPInt:  NShTT=   24090 NPrTT=  146301 LenC2=   17453 LenP2D=   55227.
 LDataN:  DoStor=T MaxTD1= 7 Len=  274
 NBasis=   592 RedAO= T EigKep=  2.33D-03  NBF=   592
 NBsUse=   592 1.00D-06 EigRej= -1.00D+00 NBFU=   592
 Defaulting to unpruned grid for atomic number  79.
 ExpMin= 2.79D-02 ExpMax= 5.61D+05 ExpMxC= 5.42D+03 IAcc=3 IRadAn=         5 AccDes= 0.00D+00
 Harris functional with IExCor=  402 and IRadAn=       5 diagonalized for initial guess.
 HarFok:  IExCor=  402 AccDes= 0.00D+00 IRadAn=         5 IDoV= 1 UseB2=F ITyADJ=14
 ICtDFT=  3500011 ScaDFX=  1.000000  1.000000  1.000000  1.000000
 Defaulting to unpruned grid for atomic number  79.
 Defaulting to unpruned grid for atomic number  79.
 Defaulting to unpruned grid for atomic number  79.
 Defaulting to unpruned grid for atomic number  79.
 Defaulting to unpruned grid for atomic number  79.
 Defaulting to unpruned grid for atomic number  79.
 Defaulting to unpruned grid for atomic number  79.
 Defaulting to unpruned grid for atomic number  79.
 Defaulting to unpruned grid for atomic number  79.
 Defaulting to unpruned grid for atomic number  79.
 Defaulting to unpruned grid for atomic number  79.
 Defaulting to unpruned grid for atomic number  79.
 Defaulting to unpruned grid for atomic number  79.
 Defaulting to unpruned grid for atomic number  79.
 Defaulting to unpruned grid for atomic number  79.
 FoFCou: FMM=F IPFlag=           0 FMFlag=      100000 FMFlg1=        2001
         NFxFlg=           0 DoJE=T BraDBF=F KetDBF=T FulRan=T
         wScrn=  0.000000 ICntrl=     500 IOpCl=  0 I1Cent=   200000004 NGrid=           0
         NMat0=    1 NMatS0=      1 NMatT0=    0 NMatD0=    1 NMtDS0=    0 NMtDT0=    0
 Petite list used in FoFCou.
 Requested convergence on RMS density matrix=1.00D-08 within 128 cycles.
 Requested convergence on MAX density matrix=1.00D-06.
 Requested convergence on             energy=1.00D-06.
 No special actions if energy rises.
 Defaulting to unpruned grid for atomic number  79.
 Defaulting to unpruned grid for atomic number  79.
 Defaulting to unpruned grid for atomic number  79.
 Defaulting to unpruned grid for atomic number  79.
 Defaulting to unpruned grid for atomic number  79.
 Defaulting to unpruned grid for atomic number  79.
 Defaulting to unpruned grid for atomic number  79.
 Defaulting to unpruned grid for atomic number  79.
 Defaulting to unpruned grid for atomic number  79.
 Defaulting to unpruned grid for atomic number  79.
 Defaulting to unpruned grid for atomic number  79.
 Defaulting to unpruned grid for atomic number  79.
 Defaulting to unpruned grid for atomic number  79.
 Defaulting to unpruned grid for atomic number  79.
 Defaulting to unpruned grid for atomic number  79.
 EnCoef did     4 forward-backward iterations
 EnCoef did   100 forward-backward iterations
 EnCoef did     7 forward-backward iterations
 SCF Done:  E(RB3LYP) =  -5257.82169061     A.U. after   20 cycles
            NFock= 20  Conv=0.35D-08     -V/T= 2.0185

 **********************************************************************

            Population analysis using the SCF density.

 **********************************************************************

 Orbital symmetries:
       Occupied  (A) (A) (A) (A) (A) (A) (A) (A) (A) (A) (A) (A)
                 (A) (A) (A) (A) (A) (A) (A) (A) (A) (A) (A) (A)
                 (A) (A) (A) (A) (A) (A) (A) (A) (A) (A) (A) (A)
                 (A) (A) (A) (A) (A) (A) (A) (A) (A) (A) (A) (A)
                 (A) (A) (A) (A) (A) (A) (A) (A) (A) (A) (A) (A)
                 (A) (A) (A) (A) (A) (A) (A) (A) (A) (A) (A) (A)
                 (A) (A) (A) (A) (A) (A) (A) (A) (A) (A) (A) (A)
                 (A) (A) (A) (A) (A) (A) (A) (A) (A) (A) (A) (A)
                 (A) (A) (A) (A) (A) (A) (A) (A) (A) (A) (A) (A)
                 (A) (A) (A) (A) (A) (A) (A) (A) (A) (A) (A) (A)
                 (A) (A) (A) (A) (A) (A) (A) (A) (A) (A) (A) (A)
                 (A) (A) (A) (A) (A) (A) (A) (A) (A) (A) (A) (A)
                 (A) (A) (A) (A) (A) (A) (A) (A) (A) (A) (A) (A)
                 (A) (A) (A) (A) (A) (A) (A)
       Virtual   (A) (A) (A) (A) (A) (A) (A) (A) (A) (A) (A) (A)
                 (A) (A) (A) (A) (A) (A) (A) (A) (A) (A) (A) (A)
                 (A) (A) (A) (A) (A) (A) (A) (A) (A) (A) (A) (A)
                 (A) (A) (A) (A) (A) (A) (A) (A) (A) (A) (A) (A)
                 (A) (A) (A) (A) (A) (A) (A) (A) (A) (A) (A) (A)
                 (A) (A) (A) (A) (A) (A) (A) (A) (A) (A) (A) (A)
                 (A) (A) (A) (A) (A) (A) (A) (A) (A) (A) (A) (A)
                 (A) (A) (A) (A) (A) (A) (A) (A) (A) (A) (A) (A)
                 (A) (A) (A) (A) (A) (A) (A) (A) (A) (A) (A) (A)
                 (A) (A) (A) (A) (A) (A) (A) (A) (A) (A) (A) (A)
                 (A) (A) (A) (A) (A) (A) (A) (A) (A) (A) (A) (A)
                 (A) (A) (A) (A) (A) (A) (A) (A) (A) (A) (A) (A)
                 (A) (A) (A) (A) (A) (A) (A) (A) (A) (A) (A) (A)
                 (A) (A) (A) (A) (A) (A) (A) (A) (A) (A) (A) (A)
                 (A) (A) (A) (A) (A) (A) (A) (A) (A) (A) (A) (A)
                 (A) (A) (A) (A) (A) (A) (A) (A) (A) (A) (A) (A)
                 (A) (A) (A) (A) (A) (A) (A) (A) (A) (A) (A) (A)
                 (A) (A) (A) (A) (A) (A) (A) (A) (A) (A) (A) (A)
                 (A) (A) (A) (A) (A) (A) (A) (A) (A) (A) (A) (A)
                 (A) (A) (A) (A) (A) (A) (A) (A) (A) (A) (A) (A)
                 (A) (A) (A) (A) (A) (A) (A) (A) (A) (A) (A) (A)
                 (A) (A) (A) (A) (A) (A) (A) (A) (A) (A) (A) (A)
                 (A) (A) (A) (A) (A) (A) (A) (A) (A) (A) (A) (A)
                 (A) (A) (A) (A) (A) (A) (A) (A) (A) (A) (A) (A)
                 (A) (A) (A) (A) (A) (A) (A) (A) (A) (A) (A) (A)
                 (A) (A) (A) (A) (A) (A) (A) (A) (A) (A) (A) (A)
                 (A) (A) (A) (A) (A) (A) (A) (A) (A) (A) (A) (A)
                 (A) (A) (A) (A) (A) (A) (A) (A) (A) (A) (A) (A)
                 (A) (A) (A) (A) (A) (A) (A) (A) (A) (A) (A) (A)
                 (A) (A) (A) (A) (A) (A) (A) (A) (A) (A) (A) (A)
                 (A) (A) (A) (A) (A) (A) (A) (A) (A) (A) (A) (A)
                 (A) (A) (A) (A) (A) (A) (A) (A) (A) (A) (A) (A)
                 (A) (A) (A) (A) (A) (A) (A) (A) (A) (A) (A) (A)
                 (A) (A) (A) (A) (A) (A) (A) (A) (A) (A) (A) (A)
                 (A) (A) (A) (A) (A) (A) (A) (A) (A) (A) (A) (A)
                 (A) (A) (A) (A) (A) (A) (A) (A) (A)
 The electronic state is 1-A.
 Alpha  occ. eigenvalues -- -453.60743-101.44181 -88.92392 -88.90536 -57.32631
 Alpha  occ. eigenvalues --  -52.10194 -52.10060 -52.09880 -19.17996 -19.15098
 Alpha  occ. eigenvalues --  -19.14605 -19.14037 -19.13435 -19.12189 -19.12134
 Alpha  occ. eigenvalues --  -14.39720 -14.38723 -14.38656 -14.36093 -14.31785
 Alpha  occ. eigenvalues --  -10.32767 -10.31714 -10.31667 -10.30718 -10.29687
 Alpha  occ. eigenvalues --  -10.27707 -10.26496 -10.25495 -10.25154 -10.24820
 Alpha  occ. eigenvalues --  -10.23796 -10.23570 -10.23013 -10.22476 -10.21923
 Alpha  occ. eigenvalues --  -10.20729 -10.20033  -9.37098  -7.99761  -7.97674
 Alpha  occ. eigenvalues --   -7.67650  -7.13127  -7.12633  -7.12599  -5.96061
 Alpha  occ. eigenvalues --   -5.95797  -5.95364  -5.94107  -5.93799  -5.93086
 Alpha  occ. eigenvalues --   -5.80657  -5.80189  -5.79529  -4.20206  -2.34505
 Alpha  occ. eigenvalues --   -2.33404  -2.32578  -2.16724  -2.16692  -2.16144
 Alpha  occ. eigenvalues --   -2.15761  -2.15667  -1.09804  -1.07511  -1.06830
 Alpha  occ. eigenvalues --   -1.05848  -1.04432  -1.01176  -1.00476  -0.97078
 Alpha  occ. eigenvalues --   -0.95431  -0.94953  -0.92970  -0.89511  -0.85443
 Alpha  occ. eigenvalues --   -0.82950  -0.80603  -0.79476  -0.76797  -0.74917
 Alpha  occ. eigenvalues --   -0.74433  -0.73444  -0.73092  -0.72587  -0.71573
 Alpha  occ. eigenvalues --   -0.65618  -0.65599  -0.65111  -0.63862  -0.63200
 Alpha  occ. eigenvalues --   -0.61953  -0.61650  -0.61399  -0.59387  -0.58825
 Alpha  occ. eigenvalues --   -0.56645  -0.54090  -0.53502  -0.52749  -0.51477
 Alpha  occ. eigenvalues --   -0.50840  -0.50526  -0.50455  -0.50395  -0.49201
 Alpha  occ. eigenvalues --   -0.49079  -0.48739  -0.48060  -0.47364  -0.47238
 Alpha  occ. eigenvalues --   -0.46846  -0.46293  -0.45926  -0.45368  -0.45054
 Alpha  occ. eigenvalues --   -0.44789  -0.44723  -0.44179  -0.43414  -0.43171
 Alpha  occ. eigenvalues --   -0.42784  -0.42250  -0.42214  -0.42027  -0.41840
 Alpha  occ. eigenvalues --   -0.41125  -0.40892  -0.40643  -0.39968  -0.39815
 Alpha  occ. eigenvalues --   -0.39370  -0.39151  -0.38926  -0.38429  -0.38017
 Alpha  occ. eigenvalues --   -0.37785  -0.37217  -0.36874  -0.36219  -0.35328
 Alpha  occ. eigenvalues --   -0.34836  -0.33945  -0.32540  -0.32271  -0.31708
 Alpha  occ. eigenvalues --   -0.31017  -0.30752  -0.30687  -0.29967  -0.29519
 Alpha  occ. eigenvalues --   -0.28964  -0.28772  -0.27891  -0.27749  -0.27362
 Alpha  occ. eigenvalues --   -0.26858  -0.26166  -0.26008  -0.25430  -0.24575
 Alpha  occ. eigenvalues --   -0.24178  -0.23922  -0.21522
 Alpha virt. eigenvalues --   -0.13971  -0.05794  -0.03151  -0.02593  -0.01892
 Alpha virt. eigenvalues --   -0.00577  -0.00130   0.00419   0.00926   0.01746
 Alpha virt. eigenvalues --    0.03176   0.03290   0.03656   0.03931   0.05265
 Alpha virt. eigenvalues --    0.06465   0.07377   0.08043   0.09203   0.09418
 Alpha virt. eigenvalues --    0.09931   0.10364   0.10479   0.11008   0.11666
 Alpha virt. eigenvalues --    0.11813   0.12263   0.12471   0.12713   0.13489
 Alpha virt. eigenvalues --    0.13632   0.14108   0.14255   0.14541   0.14931
 Alpha virt. eigenvalues --    0.15245   0.15839   0.16030   0.16320   0.16575
 Alpha virt. eigenvalues --    0.17092   0.17275   0.17601   0.17985   0.18356
 Alpha virt. eigenvalues --    0.18650   0.18698   0.19144   0.19593   0.20058
 Alpha virt. eigenvalues --    0.20196   0.21178   0.21318   0.21494   0.22532
 Alpha virt. eigenvalues --    0.23088   0.23474   0.23729   0.24130   0.24845
 Alpha virt. eigenvalues --    0.25049   0.25402   0.26074   0.26859   0.27031
 Alpha virt. eigenvalues --    0.30207   0.30307   0.31435   0.31914   0.32382
 Alpha virt. eigenvalues --    0.33140   0.34048   0.34648   0.35662   0.36001
 Alpha virt. eigenvalues --    0.36654   0.37254   0.37700   0.38721   0.39544
 Alpha virt. eigenvalues --    0.39707   0.41160   0.41887   0.42189   0.43791
 Alpha virt. eigenvalues --    0.43909   0.44524   0.45055   0.45653   0.46106
 Alpha virt. eigenvalues --    0.46683   0.47721   0.48687   0.49018   0.50371
 Alpha virt. eigenvalues --    0.50539   0.51727   0.51984   0.52565   0.52763
 Alpha virt. eigenvalues --    0.53204   0.53737   0.54236   0.54539   0.54871
 Alpha virt. eigenvalues --    0.55529   0.55822   0.56094   0.56673   0.56780
 Alpha virt. eigenvalues --    0.56894   0.57894   0.58527   0.59053   0.59781
 Alpha virt. eigenvalues --    0.59977   0.61463   0.61988   0.62359   0.62763
 Alpha virt. eigenvalues --    0.63349   0.63907   0.64083   0.64309   0.64481
 Alpha virt. eigenvalues --    0.65245   0.65452   0.65707   0.66351   0.66881
 Alpha virt. eigenvalues --    0.67441   0.67484   0.67892   0.68357   0.68967
 Alpha virt. eigenvalues --    0.69631   0.71025   0.71239   0.71779   0.72332
 Alpha virt. eigenvalues --    0.72708   0.73200   0.73597   0.74084   0.74895
 Alpha virt. eigenvalues --    0.75750   0.76393   0.76693   0.77409   0.78205
 Alpha virt. eigenvalues --    0.78743   0.79434   0.79663   0.79899   0.80569
 Alpha virt. eigenvalues --    0.81526   0.82067   0.82377   0.82484   0.83314
 Alpha virt. eigenvalues --    0.83515   0.83888   0.84191   0.84781   0.85085
 Alpha virt. eigenvalues --    0.85491   0.85706   0.85962   0.86469   0.86571
 Alpha virt. eigenvalues --    0.87223   0.87619   0.88036   0.88140   0.88956
 Alpha virt. eigenvalues --    0.89213   0.89450   0.89640   0.89993   0.90384
 Alpha virt. eigenvalues --    0.90511   0.90972   0.91366   0.91694   0.91884
 Alpha virt. eigenvalues --    0.92154   0.92580   0.92894   0.93274   0.93429
 Alpha virt. eigenvalues --    0.93992   0.94191   0.94411   0.94630   0.94783
 Alpha virt. eigenvalues --    0.95481   0.96060   0.96782   0.97143   0.97454
 Alpha virt. eigenvalues --    0.97993   0.98630   0.98891   0.99676   1.00115
 Alpha virt. eigenvalues --    1.00370   1.00798   1.01366   1.02023   1.02843
 Alpha virt. eigenvalues --    1.03273   1.04019   1.06193   1.06254   1.07049
 Alpha virt. eigenvalues --    1.07710   1.07915   1.07977   1.09617   1.10065
 Alpha virt. eigenvalues --    1.10751   1.12008   1.12255   1.12815   1.13461
 Alpha virt. eigenvalues --    1.14393   1.16911   1.17615   1.19197   1.19804
 Alpha virt. eigenvalues --    1.20732   1.21733   1.22986   1.23922   1.25379
 Alpha virt. eigenvalues --    1.25431   1.27113   1.27640   1.27684   1.29201
 Alpha virt. eigenvalues --    1.30173   1.30959   1.32862   1.33894   1.36079
 Alpha virt. eigenvalues --    1.37784   1.39400   1.40324   1.41142   1.41457
 Alpha virt. eigenvalues --    1.42192   1.42866   1.44409   1.45294   1.45686
 Alpha virt. eigenvalues --    1.48500   1.49409   1.50471   1.51821   1.51979
 Alpha virt. eigenvalues --    1.53633   1.53764   1.54598   1.55039   1.55724
 Alpha virt. eigenvalues --    1.56549   1.58354   1.58643   1.58969   1.59679
 Alpha virt. eigenvalues --    1.61337   1.61718   1.62030   1.64779   1.66944
 Alpha virt. eigenvalues --    1.67163   1.67608   1.68312   1.70365   1.70705
 Alpha virt. eigenvalues --    1.70965   1.73276   1.73418   1.75204   1.75754
 Alpha virt. eigenvalues --    1.76871   1.77787   1.78317   1.79326   1.79644
 Alpha virt. eigenvalues --    1.80157   1.81097   1.81416   1.82139   1.82798
 Alpha virt. eigenvalues --    1.82895   1.84026   1.84264   1.85559   1.86058
 Alpha virt. eigenvalues --    1.86754   1.87206   1.87952   1.88908   1.89116
 Alpha virt. eigenvalues --    1.90933   1.91790   1.92196   1.92253   1.92948
 Alpha virt. eigenvalues --    1.93377   1.94024   1.94260   1.94573   1.94894
 Alpha virt. eigenvalues --    1.95513   1.95641   1.95885   1.96041   1.96166
 Alpha virt. eigenvalues --    1.96836   1.97439   1.97787   1.98095   1.98521
 Alpha virt. eigenvalues --    1.98888   1.99007   1.99768   1.99872   2.00948
 Alpha virt. eigenvalues --    2.01658   2.02189   2.02917   2.03004   2.04291
 Alpha virt. eigenvalues --    2.05150   2.05747   2.06699   2.07196   2.07346
 Alpha virt. eigenvalues --    2.08057   2.09284   2.09511   2.09889   2.10272
 Alpha virt. eigenvalues --    2.11627   2.12473   2.14008   2.14528   2.14818
 Alpha virt. eigenvalues --    2.15246   2.15903   2.16519   2.16788   2.18283
 Alpha virt. eigenvalues --    2.21492   2.21704   2.22360   2.23131   2.23412
 Alpha virt. eigenvalues --    2.25569   2.26018   2.26332   2.26994   2.27805
 Alpha virt. eigenvalues --    2.28096   2.29021   2.29248   2.30430   2.31796
 Alpha virt. eigenvalues --    2.32209   2.33180   2.34182   2.36411   2.38247
 Alpha virt. eigenvalues --    2.38950   2.40106   2.41534   2.42468   2.44045
 Alpha virt. eigenvalues --    2.44791   2.46665   2.49322   2.50691   2.51347
 Alpha virt. eigenvalues --    2.51662   2.53630   2.55195   2.55827   2.57053
 Alpha virt. eigenvalues --    2.57446   2.58420   2.58980   2.59585   2.59780
 Alpha virt. eigenvalues --    2.60850   2.62026   2.63289   2.65511   2.66087
 Alpha virt. eigenvalues --    2.66370   2.67749   2.68374   2.71179   2.72446
 Alpha virt. eigenvalues --    2.76658   2.82115   2.82905   2.85594   2.88461
 Alpha virt. eigenvalues --    2.89769   2.91722   2.93041   2.94208   2.97743
 Alpha virt. eigenvalues --    2.98345   3.00221   3.00881   3.03981   3.09055
 Alpha virt. eigenvalues --    3.09959   3.13050   3.13617   3.14669   7.96879
 Alpha virt. eigenvalues --   15.55886  15.63404  15.68679  43.07234
          Condensed to atoms (all electrons):
 Mulliken charges:
               1
     1  Au  -0.055637
     2  C   -0.428389
     3  H    0.196148
     4  H    0.260233
     5  C   -0.422944
     6  H    0.213647
     7  H    0.196315
     8  C   -0.454069
     9  H    0.157282
    10  H    0.184783
    11  H    0.174038
    12  C   -0.449381
    13  H    0.167250
    14  H    0.180702
    15  H    0.167396
    16  N   -0.701964
    17  C   -0.108059
    18  C    0.590400
    19  O   -0.520110
    20  C   -0.003736
    21  O   -0.657213
    22  N   -0.586341
    23  C   -0.244899
    24  C    0.562505
    25  O   -0.476112
    26  N   -0.581710
    27  C   -0.058693
    28  C    0.564400
    29  O   -0.473184
    30  C   -0.440404
    31  S    0.004104
    32  N   -0.567661
    33  C   -0.087373
    34  C   -0.363169
    35  C    0.547742
    36  O   -0.444562
    37  N   -0.552896
    38  C   -0.255545
    39  C    0.548514
    40  O   -0.411821
    41  O   -0.621334
    42  H    0.140076
    43  H    0.158049
    44  H    0.428271
    45  H    0.140290
    46  H    0.319761
    47  H    0.300015
    48  H    0.198526
    49  H    0.175207
    50  H    0.358282
    51  H    0.196631
    52  H    0.224382
    53  H    0.180035
    54  H    0.363248
    55  H    0.227468
    56  H    0.259085
    57  H    0.201900
    58  H    0.352683
    59  H    0.190609
    60  H    0.208575
    61  H    0.351294
    62  H    0.457212
    63  Se  -0.031152
    64  Cl  -0.399870
    65  S    0.251171
 Sum of Mulliken charges =   0.00000
 Mulliken charges with hydrogens summed into heavy atoms:
               1
     1  Au  -0.055637
     2  C    0.027991
     5  C   -0.012982
     8  C    0.062033
    12  C    0.065967
    16  N   -0.082188
    17  C    0.032230
    18  C    0.590400
    19  O   -0.520110
    20  C    0.294389
    21  O   -0.228942
    22  N   -0.228059
    23  C    0.128835
    24  C    0.562505
    25  O   -0.476112
    26  N   -0.218462
    27  C    0.121342
    28  C    0.564400
    29  O   -0.473184
    30  C   -0.019392
    31  S    0.004104
    32  N   -0.214977
    33  C    0.114527
    34  C    0.123383
    35  C    0.547742
    36  O   -0.444562
    37  N   -0.201601
    38  C    0.143640
    39  C    0.548514
    40  O   -0.411821
    41  O   -0.164122
    63  Se  -0.031152
    64  Cl  -0.399870
    65  S    0.251171
 Electronic spatial extent (au):  <R**2>=          27091.1427
 Charge=              0.0000 electrons
 Dipole moment (field-independent basis, Debye):
    X=             -2.5698    Y=              7.3876    Z=              8.9688  Tot=             11.9004
 Quadrupole moment (field-independent basis, Debye-Ang):
   XX=           -244.5961   YY=           -246.9454   ZZ=           -269.4299
   XY=            -29.9502   XZ=             17.7697   YZ=              0.5895
 Traceless Quadrupole moment (field-independent basis, Debye-Ang):
   XX=              9.0610   YY=              6.7117   ZZ=            -15.7727
   XY=            -29.9502   XZ=             17.7697   YZ=              0.5895
 Octapole moment (field-independent basis, Debye-Ang**2):
  XXX=           -571.3951  YYY=            -94.4785  ZZZ=             80.7314  XYY=           -137.8705
  XXY=            153.9665  XXZ=            152.4379  XZZ=           -119.8407  YZZ=             36.5044
  YYZ=             46.5031  XYZ=             79.8882
 Hexadecapole moment (field-independent basis, Debye-Ang**3):
 XXXX=         -23736.4824 YYYY=          -7077.0559 ZZZZ=          -2955.9644 XXXY=           -622.6143
 XXXZ=            658.9515 YYYX=           -441.0446 YYYZ=            -37.8533 ZZZX=            -72.3708
 ZZZY=            -38.9429 XXYY=          -5359.9939 XXZZ=          -4799.0410 YYZZ=          -1775.6663
 XXYZ=             92.9161 YYXZ=             41.8361 ZZXY=            107.2769
 N-N= 5.686022253200D+03 E-N=-2.381282993543D+04  KE= 5.162116007793D+03
   1 Symmetry operations used in ECPInt.
 ECPInt:  NShTT=   24090 NPrTT=  146301 LenC2=   17453 LenP2D=   55227.
 LDataN:  DoStor=T MaxTD1= 8 Len=  415
 Calling FoFJK, ICntrl=      2127 FMM=T ISym2X=0 I1Cent= 0 IOpClX= 0 NMat=1 NMatS=1 NMatT=0.
 Defaulting to unpruned grid for atomic number  79.
 Defaulting to unpruned grid for atomic number  79.
 Defaulting to unpruned grid for atomic number  79.
 Defaulting to unpruned grid for atomic number  79.
 Defaulting to unpruned grid for atomic number  79.
 Defaulting to unpruned grid for atomic number  79.
 Defaulting to unpruned grid for atomic number  79.
 Defaulting to unpruned grid for atomic number  79.
 Defaulting to unpruned grid for atomic number  79.
 Defaulting to unpruned grid for atomic number  79.
 Defaulting to unpruned grid for atomic number  79.
 Defaulting to unpruned grid for atomic number  79.
 Defaulting to unpruned grid for atomic number  79.
 Defaulting to unpruned grid for atomic number  79.
 Defaulting to unpruned grid for atomic number  79.
 ***** Axes restored to original set *****
 -------------------------------------------------------------------
 Center     Atomic                   Forces (Hartrees/Bohr)
 Number     Number              X              Y              Z
 -------------------------------------------------------------------
      1       79           0.002385187   -0.008279122   -0.001945694
      2        6          -0.000333698   -0.000561525   -0.001573076
      3        1          -0.000201963    0.000142530    0.001162171
      4        1           0.000125382   -0.000056232    0.000129484
      5        6          -0.000297539   -0.001704967    0.000059169
      6        1          -0.000716406   -0.000719997   -0.000133400
      7        1           0.000531855    0.000242642   -0.002285904
      8        6           0.000100712    0.000120920    0.000332671
      9        1           0.000009311    0.000159031   -0.000067569
     10        1           0.000070381   -0.000036333   -0.000161648
     11        1           0.000286836   -0.000115710    0.000086826
     12        6          -0.000244546    0.000467272    0.000240019
     13        1          -0.000671903   -0.001403710   -0.000754899
     14        1          -0.000392675   -0.000310987    0.001413185
     15        1           0.001030336    0.000422526    0.000120290
     16        7          -0.000011233   -0.000031979    0.000022101
     17        6           0.000009837   -0.000048432    0.000051330
     18        6          -0.000131488    0.000246578    0.000000134
     19        8          -0.000070381   -0.000054147    0.000112095
     20        6           0.000059449    0.000035359   -0.000056191
     21        8          -0.000113083    0.000044977    0.000126296
     22        7           0.000035742    0.000024044   -0.000002453
     23        6           0.000030789   -0.000006429   -0.000038861
     24        6          -0.000061330    0.000028819   -0.000029810
     25        8           0.000096823    0.000023376   -0.000048043
     26        7           0.000103307   -0.000059656   -0.000042307
     27        6          -0.000012281    0.000039357    0.000020442
     28        6          -0.000033160   -0.000063627    0.000054830
     29        8          -0.000060195    0.000136120   -0.000141833
     30        6          -0.000052645    0.000089205    0.000130483
     31       16          -0.000799484   -0.000113558   -0.000629240
     32        7          -0.000109942    0.000060720    0.000076250
     33        6           0.000020590    0.000068948   -0.000122105
     34        6           0.000038956    0.000017202   -0.000022165
     35        6          -0.000042781   -0.000129745    0.000027209
     36        8           0.000069617   -0.000025841    0.000095142
     37        7           0.000085084    0.000159877   -0.000042348
     38        6          -0.000043014   -0.000079715   -0.000006856
     39        6          -0.000070402    0.000118045   -0.000034275
     40        8           0.000018892   -0.000025543    0.000096621
     41        8          -0.000168662   -0.000123363    0.000264732
     42        1          -0.000004673   -0.000050094    0.000023013
     43        1           0.000008353    0.000023288    0.000000683
     44        1           0.000050066   -0.000022261   -0.000122027
     45        1          -0.000016840   -0.000046588   -0.000017099
     46        1           0.000008907    0.000021968    0.000019322
     47        1          -0.000031322   -0.000000965   -0.000029674
     48        1           0.000002012   -0.000015248   -0.000013084
     49        1          -0.000017815   -0.000002608   -0.000001794
     50        1          -0.000096750    0.000067854    0.000025270
     51        1          -0.000009418   -0.000001588   -0.000009854
     52        1          -0.000010102   -0.000004357   -0.000007860
     53        1           0.000022400    0.000015608   -0.000009036
     54        1           0.000000035    0.000011640    0.000003364
     55        1           0.000007135    0.000047214   -0.000059221
     56        1           0.000004140    0.000021917    0.000038899
     57        1          -0.000006554   -0.000002039   -0.000002508
     58        1           0.000067971   -0.000056903    0.000081328
     59        1          -0.000041196   -0.000004721    0.000003554
     60        1           0.000045490   -0.000052521   -0.000010919
     61        1          -0.000024637   -0.000036685    0.000059074
     62        1           0.000376098   -0.000133580   -0.000337061
     63       34          -0.002659334    0.004137934   -0.001672200
     64       17           0.000821254    0.003865704    0.003306367
     65       16           0.001034507    0.003520102    0.002248660
 -------------------------------------------------------------------
 Cartesian Forces:  Max     0.008279122 RMS     0.000942172

 GradGradGradGradGradGradGradGradGradGradGradGradGradGradGradGradGradGrad
 Berny optimization.
 FormGI is forming the generalized inverse of G from B-inverse, IUseBI=4.
 Internal  Forces:  Max     0.004958495 RMS     0.000635220
 Search for a saddle point.
 Step number   1 out of a maximum of  346
 All quantities printed in internal units (Hartrees-Bohrs-Radians)
 Swapping is turned off.
 Second derivative matrix not updated -- first step.
 ITU=  0
     Eigenvalues ---   -0.10302  -0.00077   0.00009   0.00095   0.00174
     Eigenvalues ---    0.00192   0.00207   0.00223   0.00227   0.00238
     Eigenvalues ---    0.00274   0.00330   0.00388   0.00395   0.00411
     Eigenvalues ---    0.00489   0.00500   0.00626   0.00730   0.00747
     Eigenvalues ---    0.00849   0.00986   0.01468   0.01618   0.01652
     Eigenvalues ---    0.01773   0.02067   0.02128   0.02429   0.02897
     Eigenvalues ---    0.02939   0.03210   0.03298   0.03451   0.03590
     Eigenvalues ---    0.03633   0.03812   0.03938   0.03980   0.04096
     Eigenvalues ---    0.04142   0.04198   0.04429   0.04489   0.04510
     Eigenvalues ---    0.04559   0.04581   0.04677   0.04748   0.04785
     Eigenvalues ---    0.04855   0.04947   0.05090   0.05126   0.05161
     Eigenvalues ---    0.05223   0.05240   0.05388   0.05451   0.05551
     Eigenvalues ---    0.05719   0.05812   0.06271   0.06614   0.06718
     Eigenvalues ---    0.06850   0.07043   0.07163   0.07559   0.07716
     Eigenvalues ---    0.08152   0.08221   0.08581   0.08724   0.08868
     Eigenvalues ---    0.09000   0.09081   0.09495   0.10239   0.10524
     Eigenvalues ---    0.10655   0.10719   0.11034   0.11120   0.11828
     Eigenvalues ---    0.11866   0.12188   0.12664   0.12671   0.12784
     Eigenvalues ---    0.12940   0.13378   0.13606   0.13665   0.13773
     Eigenvalues ---    0.13943   0.14427   0.15104   0.15358   0.15560
     Eigenvalues ---    0.15755   0.16318   0.16437   0.16727   0.16749
     Eigenvalues ---    0.16973   0.17435   0.17608   0.17970   0.18183
     Eigenvalues ---    0.18330   0.18832   0.19588   0.19893   0.19898
     Eigenvalues ---    0.20463   0.21066   0.21261   0.21628   0.21978
     Eigenvalues ---    0.22219   0.22793   0.23013   0.23512   0.23936
     Eigenvalues ---    0.24544   0.25266   0.25740   0.26275   0.26765
     Eigenvalues ---    0.28018   0.28786   0.29633   0.29658   0.30388
     Eigenvalues ---    0.31533   0.32284   0.32413   0.32484   0.32955
[...]
 723,-0.00012696,0.00007290,-0.00003302,-0.00129756,-0.00108200,0.00069
 406,0.00043257,0.00064534,-0.00067061,0.00136019,0.00087895,-0.0002479
 3,-0.00137211,-0.00142906,-0.00166412,-0.00201496,-0.00043432,-0.00048
 193,0.00127589,0.00035543,0.00036712,-0.00869842,-0.01556591,0.0018211
 0,-0.01593702,0.01134482,-0.01268194,-0.00043765,0.00028238,0.00110901
 ,0.00366712,-0.00253818,-0.00726611,0.00826941,-0.03706761,-0.01457201
 ,0.00025915,0.00148898,0.00212752,0.00035678,-0.00004026,-0.00063608,0
 .00068643,-0.00059905,-0.00091562,-0.00025986,0.00009574,-0.00023798,-
 0.00038649,-0.00023029,0.00018380,0.00024417,0.00010563,-0.00015481,0.
 00029750,0.00013934,-0.00001491,0.00002002,0.00004678,-0.00002096,0.00
 002444,-0.00001382,0.00000014,-0.00013764,-0.00003449,0.00024367,-0.00
 001298,-0.00002421,-0.00001417,-0.00003740,-0.00004028,0.00003939,-0.0
 0002381,-0.00004082,0.00001569,0.00004670,0.00000375,0.00001367,0.0000
 0254,-0.00003530,-0.00001668,-0.00009388,-0.00003041,-0.00003902,-0.00
 228868,-0.00054479,-0.00171300,0.00183823,-0.00034090,0.00060805,-0.00
 044587,0.00038899,0.00045195,-0.00066399,-0.00032008,0.00013179,0.0130
 3462,-0.00648675,-0.01886820,-0.00249689,0.00119330,0.00194089,-0.0002
 0981,-0.00007223,0.00004420,-0.00066442,0.00005313,0.00055443,0.000079
 41,-0.00003260,0.00003312,-0.00005075,0.00006314,0.00001725,0.00012977
 ,-0.00004927,0.00016627,-0.00013657,-0.00008151,0.00003213,-0.04393769
 ,0.06793477,-0.01572041,0.02245937,-0.02587251,-0.00037258,0.00078739,
 -0.00069229,0.00004241,0.00004614,0.00001781,0.00009249,-0.00012762,-0
 .00003450,-0.00028111,0.00074683,-0.00034264,0.00008919,-0.00003426,-0
 .00001459,-0.00003338,0.00002802,-0.00009604,-0.00025098,-0.00020201,0
 .00008484,-0.00000740,0.00002785,0.00001168,0.00000180,-0.00002000,0.0
 0000056,0.00000234,0.00006129,-0.00007097,0.00009294,0.00000929,0.0003
 3019,-0.00002602,0.00005935,-0.00006791,0.00002430,0.00001067,-0.00001
 075,0.00000437,-0.00002693,0.00000298,-0.00000401,-0.00001162,0.000001
 89,0.00000128,0.00001093,0.00000594,-0.00001654,0.00002359,0.00001721,
 0.00000179,-0.00005913,-0.00000875,0.00000345,0.00000180,-0.00000186,-
 0.00000357,-0.00001689,-0.00000078,0.00000029,-0.00002412,-0.00002709,
 -0.00000029,0.00011023,-0.00000132,0.00004213,-0.00010276,0.00010500,0
 .00004366,-0.00002213,-0.00000230,0.00028157,-0.00023391,-0.00019930,0
 .00081536,0.00043775,0.00022572,0.00012365,0.00100880,0.00282142,-0.00
 056418,0.00006758,-0.00077895,-0.00111079,-0.00891795,-0.00307737,0.00
 230675,0.01026749,-0.00667115,-0.00163975,-0.00195822,-0.00131334,0.00
 694186,-0.00147507,-0.00343962,0.01855852,-0.00619351,-0.07144456,-0.0
 0093049,-0.00023507,-0.00150609,0.00180859,-0.00030859,0.00088985,0.00
 010167,-0.00000585,0.00007818,0.00000769,-0.00005125,-0.00002581,0.000
 10240,0.00005101,-0.00000845,-0.00004197,-0.00002664,0.00002813,-0.000
 07058,-0.00004589,-0.00000200,-0.00000200,-0.00000330,0.00000237,0.000
 00210,0.00000034,-0.00000166,-0.00000999,0.00001424,0.00001067,-0.0000
 0094,-0.00000612,-0.00000185,0.00000363,0.00000305,-0.00000168,0.00000
 011,0.00000379,-0.00000085,0.00002316,-0.00000697,0.00000852,0.0000078
 5,-0.00000006,-0.00000017,0.00004014,0.00002576,0.00001083,-0.00222748
 ,-0.00001393,-0.00063444,-0.00025883,-0.00151823,0.00060656,0.00027650
 ,-0.00010630,-0.00016164,-0.00055821,0.00015391,0.00033743,0.00279472,
 -0.00387949,-0.00851922,0.01237081,-0.01646143,-0.01692715,-0.00028395
 ,0.00017231,0.00082015,0.00076352,0.00021228,-0.00038389,0.00000368,0.
 00001035,0.00001330,0.00004109,-0.00002134,0.00001114,-0.00001805,0.00
 005594,0.00012477,0.00003775,0.00005388,-0.00000723,-0.01584838,0.0118
 0828,0.13725514,-0.02231244,-0.01894735,-0.01227542,-0.00206117,0.0015
 5637,-0.00116672,0.00026664,0.00015995,0.00019573,0.00004866,0.0003794
 9,0.00064686,0.00086895,-0.00081536,0.00072453,-0.00018950,0.00031485,
 0.00019078,-0.00004382,0.00005877,-0.00007087,0.00068836,0.00114275,0.
 00056264,-0.00030886,0.00038689,-0.00041333,-0.00006242,-0.00009472,-0
 .00012704,0.00019287,-0.00020678,0.00018663,-0.00005172,-0.00010798,-0
 .00037560,0.00004548,-0.00011412,0.00001485,-0.00001468,0.00003548,-0.
 00003407,0.00010785,-0.00008066,0.00000348,-0.00009682,-0.00007615,0.0
 0004708,0.00007146,0.00001858,0.00000171,0.00033861,0.00001744,-0.0002
 6542,-0.00021103,0.00004855,0.00010959,0.00012364,0.00004874,-0.000042
 29,-0.00016264,-0.00005281,0.00012813,-0.00030005,-0.00007652,0.000134
 76,0.00009309,-0.00006652,-0.00001852,0.00087317,0.00073389,-0.0004158
 1,-0.00029166,-0.00045611,0.00045684,-0.00081139,-0.00047160,0.0001585
 3,0.00031945,0.00053913,0.00009129,0.00065526,0.00006541,0.00033861,-0
 .00058635,0.00012549,-0.00020224,0.00097283,0.00075445,-0.00032898,0.0
 0262420,-0.00650550,0.00165957,-0.00080762,-0.00001772,0.00005083,0.00
 054173,-0.00029115,-0.00008856,0.00155180,0.00080627,-0.00030248,0.000
 62791,-0.00049468,-0.00042733,-0.00041872,0.00023048,0.00028999,-0.000
 40648,0.00033942,0.00014656,0.00010491,-0.00008577,0.00011332,0.000254
 30,0.00014057,-0.00013616,-0.00016331,-0.00005589,0.00011568,-0.000194
 24,-0.00007043,0.00001667,-0.00001507,-0.00003423,0.00001466,-0.000018
 24,0.00001078,0.00000086,0.00010236,0.00002409,-0.00016221,0.00000800,
 0.00001984,0.00001076,0.00002867,0.00002974,-0.00002868,0.00001834,0.0
 0003011,-0.00001252,-0.00003381,-0.00000344,0.00000453,0.00001762,0.00
 002469,0.00003950,0.00006873,0.00001202,0.00002621,0.00000660,0.000176
 29,0.00011108,-0.00012199,0.00034215,0.00011049,-0.00001161,-0.0000518
 3,-0.00003752,0.00020891,0.00007871,-0.00009614,-0.00052450,-0.0002589
 9,0.00042273,0.00012683,0.00012108,-0.00018070,-0.00008766,-0.00005322
 ,0.00002641,0.00028582,0.00006320,-0.00017388,-0.00004815,0.00002557,-
 0.00001621,0.00004067,-0.00003780,0.00000599,-0.00000785,-0.00003924,-
 0.00006040,0.00009213,0.00003866,-0.00001809,-0.00522250,0.00465825,-0
 .00543710,0.02336357,-0.02913626,-0.03008756,-0.02143395,0.00046504,-0
 .00279437,-0.00010648,0.00013058,-0.00042098,-0.00017754,0.00037444,-0
 .00277470,-0.00006580,0.00024678,-0.00040266,0.00128662,-0.00019642,0.
 00001152,-0.00003357,0.00014280,0.00001873,-0.00001563,0.00000194,-0.0
 0034845,-0.00041132,0.00010664,-0.00006225,0.00029845,-0.00008644,-0.0
 0004234,0.00003262,0.00017742,-0.00000631,0.00007842,-0.00001979,-0.00
 022085,-0.00064019,0.00006108,-0.00024312,-0.00006635,-0.00001361,0.00
 007552,-0.00000090,-0.00000779,0.00004746,0.00005343,-0.00007122,-0.00
 004047,0.00003216,0.00005268,0.00000442,-0.00000494,0.00031370,-0.0000
 4645,-0.00024206,-0.00017503,0.00014448,0.00009869,0.00009687,0.000026
 96,-0.00002879,-0.00012951,-0.00001566,0.00009919,-0.00026160,-0.00003
 474,0.00013822,0.00009318,-0.00008301,-0.00002702,0.00069144,0.0005218
 0,-0.00029919,-0.00026953,-0.00029124,0.00032831,-0.00063561,-0.000302
 82,0.00020325,0.00027836,0.00045604,0.00018339,0.00061424,-0.00009299,
 -0.00006276,-0.00046752,0.00019489,-0.00002138,0.00103968,0.00268243,-
 0.00048227,0.00636347,-0.00808811,0.00497876,-0.00053152,0.00026684,0.
 00031639,0.00026323,-0.00024531,0.00048105,0.00201148,0.00113664,-0.00
 055356,-0.00003350,-0.00035335,-0.00077972,0.00002623,0.00027900,0.000
 55450,-0.00007206,0.00018956,0.00025251,0.00003969,-0.00006595,-0.0000
 1122,0.00006228,-0.00001959,-0.00016529,-0.00006166,0.00001059,0.00011
 750,-0.00002632,0.00008804,0.00006893,-0.00000895,-0.00002042,0.000007
 12,-0.00001919,0.00000911,0.00000259,0.00009433,0.00000194,-0.00013011
 ,0.00000634,0.00002218,0.00001178,0.00001821,0.00001838,-0.00002033,0.
 00001403,0.00001538,-0.00000804,-0.00002529,0.00000276,-0.00000217,0.0
 0000477,0.00001651,0.00002587,0.00004584,-0.00002158,0.00000914,0.0004
 5123,0.00005307,0.00048247,-0.00026484,0.00031895,-0.00006813,0.000008
 17,-0.00004952,-0.00006088,0.00024439,0.00001288,-0.00010886,-0.001418
 08,0.00033954,0.00048173,-0.00065240,-0.00030805,-0.00002361,0.0000702
 6,-0.00003313,-0.00002076,0.00023758,0.00000977,-0.00018060,-0.0000213
 5,0.00001652,0.00000298,0.00003187,-0.00003761,0.00000368,-0.00005317,
 -0.00003948,-0.00003555,0.00002176,-0.00005946,0.00000273,-0.00292567,
 0.00908863,-0.00401540,0.01898223,0.04076299,-0.01571596,-0.01766581,-
 0.01630971,-0.00137616,-0.00007962,0.00026073,-0.00001656,0.00059875,0
 .00026254,0.00092587,-0.00012522,-0.00092356,-0.00000526,-0.00014407,0
 .00004033,-0.00012259,0.00016047,0.00008617,-0.00002150,0.00014874,0.0
 0000973,0.00025426,0.00027180,0.00005947,-0.00012005,0.00018016,-0.000
 03509,-0.00002835,-0.00021156,0.00007384,0.00011810,-0.00008207,0.0000
 6704,-0.00000605,0.00001690,0.00003471,0.00000240,0.00001328,-0.000030
 23,-0.00000681,0.00002528,-0.00003431,0.00006258,-0.00004589,-0.000006
 38,-0.00006676,-0.00004919,0.00004278,0.00005258,0.00000842,-0.0000037
 3,0.00031199,-0.00001281,-0.00025568,-0.00017393,0.00010348,0.00010947
 ,0.00006519,0.00002838,-0.00004599,-0.00009120,-0.00002417,0.00013268,
 -0.00025954,-0.00004985,0.00015067,0.00008758,-0.00009070,-0.00003199,
 0.00074766,0.00065981,-0.00040920,-0.00025400,-0.00038185,0.00043409,-
 0.00078733,-0.00033023,0.00022226,0.00024998,0.00028244,-0.00000912,0.
 00059463,-0.00000557,-0.00013605,-0.00049638,0.00010280,0.00006488,0.0
 0069301,0.00180282,-0.00029913,0.00281161,-0.00629136,0.00399900,-0.00
 065008,0.00028686,0.00036548,0.00016480,-0.00042938,0.00047735,0.00128
 568,0.00018361,-0.00077697,-0.00010633,-0.00030327,-0.00090125,0.00005
 861,0.00016981,0.00066305,-0.00004896,0.00013589,0.00029094,0.00004054
 ,-0.00005725,-0.00001407,0.00010951,0.00001988,-0.00019279,-0.00008006
 ,-0.00001760,0.00014696,-0.00005187,0.00004969,0.00007897,-0.00000818,
 -0.00002286,0.00001149,-0.00001667,0.00000867,0.00000176,0.00008052,0.
 00000839,-0.00016148,0.00000661,0.00002139,0.00001023,0.00001830,0.000
 02126,-0.00002451,0.00001525,0.00001780,-0.00000708,-0.00003206,0.0000
 0133,-0.00000177,0.00001137,0.00001709,0.00003648,0.00004767,-0.000010
 29,0.00000400,0.00025428,-0.00003715,0.00034773,-0.00016784,0.00041065
 ,0.00002914,-0.00003680,-0.00002388,-0.00001537,0.00029150,0.00001501,
 -0.00018568,-0.00055754,-0.00002464,0.00016368,-0.00051211,-0.00015791
 ,0.00003700,0.00010047,-0.00002546,-0.00001029,0.00020023,0.00002316,-
 0.00020964,-0.00001397,0.00001384,0.00000274,0.00003330,-0.00003170,0.
 00000285,-0.00004513,-0.00000945,-0.00004604,0.00003561,-0.00002168,-0
 .00000841,-0.00496474,0.00556060,-0.00473531,0.01698720,0.01924588,0.0
 1599581,-0.01204698,0.00814669,-0.00593785,-0.09774520,-0.01000364,0.0
 1770473,-0.02532321,-0.01301805,-0.00769832,-0.00590659,-0.00488533,-0
 .00037464,-0.05587614,0.00229656,0.00262263,0.00556381,-0.01434393,-0.
 01993473,-0.00070424,0.00917123,0.01263797,-0.02332608,-0.00520456,-0.
 00821183,0.00091402,-0.00018933,0.00082365,0.00169713,0.00011595,0.000
 81962,0.00025027,0.00247262,-0.00290479,-0.00015747,0.00786744,0.01221
 815,-0.00088623,0.00264358,-0.00072461,0.00023766,-0.00114120,-0.00047
 386,0.00022997,-0.00017413,0.00051512,-0.00001703,-0.00002014,0.000016
 09,0.00001471,0.00000610,0.00000137,0.00007576,0.00002032,-0.00006698,
 -0.00004557,-0.00000631,0.00003008,0.00000201,0.00000931,-0.00001904,-
 0.00000509,-0.00001510,0.00004358,-0.00006097,-0.00002741,0.00004572,0
 .00001651,-0.00000852,-0.00003166,0.00020478,0.00021053,-0.00011648,-0
 .00003533,-0.00016208,0.00016365,-0.00015034,-0.00010214,0.00007034,-0
 .00019447,0.00011031,-0.00067597,-0.00001748,-0.00018135,-0.00015041,-
 0.00004931,0.00001148,0.00005831,-0.00069209,0.00001862,0.00063251,-0.
 00306408,0.00312297,-0.00305916,-0.00003303,0.00004382,0.00006242,0.00
 009678,0.00019066,0.00014150,-0.00009602,-0.00041014,-0.00008229,0.000
 08808,-0.00013186,-0.00017749,-0.00005530,0.00004748,0.00011389,-0.000
 08441,0.00004824,0.00005084,0.00002060,-0.00001428,0.00002160,0.000066
 19,0.00004320,-0.00004274,-0.00003960,-0.00002304,0.00003650,-0.000047
 60,-0.00002812,0.00001019,-0.00000210,-0.00000761,0.00000570,-0.000001
 26,0.00000183,0.00000028,0.00000668,0.00000827,-0.00004950,0.00000102,
 0.00000408,0.00000086,0.00000589,0.00000771,-0.00000811,0.00000487,0.0
 0000702,-0.00000206,-0.00000800,-0.00000342,0.00000953,0.00001377,0.00
 000285,0.00003096,0.00001556,0.00000544,-0.00000288,-0.00004701,-0.000
 18558,-0.00014401,-0.00005116,-0.00011936,-0.00004893,-0.00019501,0.00
 002867,0.00013193,-0.00007913,0.00002516,-0.00001485,0.00008334,-0.000
 01659,-0.00007831,0.00001929,-0.00002863,0.00008112,0.00004980,-0.0000
 2268,-0.00001305,0.00001725,0.00002132,-0.00003785,-0.00000853,0.00000
 328,-0.00000498,0.00000784,-0.00000317,-0.00000105,0.00000036,0.000003
 82,-0.00001427,0.00002399,0.00002283,-0.00000904,-0.00147378,0.0019630
 9,-0.00213655,-0.00015310,0.00370008,0.00012187,0.21895100,0.01103795,
 -0.02365113,0.02016250,-0.02030578,-0.04642428,0.00029183,-0.00255483,
 -0.00269126,-0.00135027,-0.02489161,-0.00638539,-0.00430098,0.01510689
 ,-0.04941442,-0.03639081,0.00040158,-0.00463364,-0.00736452,-0.0007699
 5,0.00194130,-0.00057236,0.00959615,0.00615483,-0.00117701,0.00032952,
 0.00044007,-0.00020654,-0.00003591,0.00015384,-0.00016923,0.00145803,-
 0.00026122,0.00247563,0.00288567,-0.01768495,-0.02653311,0.00277214,-0
 .00459161,0.00174377,-0.00028244,0.00138283,-0.00004136,-0.00059203,0.
 00155602,0.00046453,0.00003284,0.00003213,-0.00001994,-0.00002481,-0.0
 0000913,-0.00000194,-0.00011745,-0.00002212,0.00009620,0.00007373,0.00
 000115,-0.00004098,-0.00003384,-0.00002003,0.00001968,0.00004536,0.000
 02341,-0.00005198,0.00010278,0.00003687,-0.00005498,-0.00002698,0.0000
 2096,0.00002405,-0.00032748,-0.00030207,0.00016728,0.00009580,0.000205
 69,-0.00019505,0.00023944,0.00013658,-0.00008088,0.00016694,-0.0001873
 1,0.00065867,0.00005748,0.00029527,-0.00008131,-0.00002976,-0.00011488
 ,0.00005317,0.00088594,-0.00143939,-0.00060041,-0.00033145,0.00355867,
 0.00078198,0.00010000,0.00004372,0.00006098,-0.00027536,-0.00048205,-0
 .00041659,0.00041959,-0.00070011,0.00014524,-0.00013147,0.00024117,0.0
 0029652,0.00009931,-0.00009909,-0.00013909,0.00015652,-0.00009690,-0.0
 0009553,-0.00004185,0.00002305,-0.00005216,-0.00010297,-0.00006772,0.0
 0004173,0.00006316,0.00003060,-0.00003846,0.00007988,0.00004563,-0.000
 00067,0.00000542,0.00001334,-0.00000724,0.00000479,-0.00000301,-0.0000
 0023,-0.00002965,-0.00001228,0.00006411,-0.00000305,-0.00000663,-0.000
 00244,-0.00001004,-0.00001162,0.00001103,-0.00000659,-0.00001287,0.000
 00460,0.00001489,0.00000297,-0.00000823,-0.00001198,-0.00000796,-0.000
 03014,-0.00002236,-0.00000668,-0.00000578,-0.00015430,0.00007587,-0.00
 021701,0.00021170,0.00008910,0.00009306,0.00018785,-0.00000170,-0.0000
 8517,-0.00002741,-0.00001567,0.00003197,0.00031287,-0.00007645,-0.0000
 9168,0.00022375,0.00004182,0.00016868,-0.00005691,0.00000028,0.0000201
 5,-0.00006255,-0.00000625,0.00005772,0.00001614,-0.00000663,0.00000966
 ,-0.00001191,0.00000423,-0.00000177,0.00000504,-0.00000471,0.00002445,
 -0.00003737,-0.00002821,0.00001009,-0.00098040,-0.00076087,-0.00259751
 ,-0.00297381,-0.00919100,-0.00385189,0.00807515,0.15287986,0.00130402,
 0.00690346,-0.01703399,-0.00922747,-0.01276350,-0.03962358,0.01458401,
 0.00576405,0.00397889,-0.01121882,-0.00255597,-0.00200558,0.02714160,-
 0.02097337,-0.09242787,0.00107303,-0.00656578,-0.01164877,0.00019729,-
 0.01938677,-0.02332941,-0.01998942,-0.00843696,-0.00290927,0.00086089,
 0.00015695,0.00067835,-0.00045192,-0.00033339,0.00009514,-0.00168496,0
 .00248877,-0.00264109,0.00141776,-0.00816548,-0.00181645,-0.00002877,0
 .00062674,0.00181343,-0.00036021,0.00059167,0.00133137,-0.00028944,0.0
 0061025,0.00013770,-0.00000150,-0.00000163,-0.00000301,-0.00000063,0.0
 0000152,0.00000175,-0.00002109,0.00000537,0.00002088,0.00000680,-0.000
 01986,-0.00000935,0.00001048,0.00000094,0.00000527,-0.00001230,-0.0000
 0227,-0.00001663,0.00001625,-0.00000222,-0.00001539,-0.00000988,0.0000
 1899,-0.00000288,-0.00007661,-0.00009277,0.00008283,0.00001356,0.00004
 129,-0.00006741,0.00015465,0.00002101,-0.00006810,-0.00014679,0.000011
 87,-0.00024983,-0.00004260,0.00002689,0.00006384,0.00001985,-0.0000459
 0,-0.00003282,-0.00073796,-0.00054207,0.00054132,-0.00174560,0.0025725
 7,-0.00232853,0.00010714,-0.00009950,-0.00011309,0.00004101,0.00051576
 ,0.00045573,-0.00116846,0.00071299,-0.00051888,-0.00006775,-0.00012466
 ,-0.00015461,0.00001538,0.00003738,0.00001577,-0.00006652,0.00004707,0
 .00005256,0.00001897,-0.00000194,0.00003179,0.00002683,0.00002688,0.00
 002145,-0.00001488,-0.00000871,-0.00001244,-0.00002630,-0.00002923,-0.
 00001659,-0.00000058,-0.00000022,-0.00000065,0.00000032,0.00000018,-0.
 00000048,0.00000120,0.00000133,0.00002163,-0.00000059,-0.00000220,-0.0
 0000034,0.00000094,0.00000017,0.00000087,-0.00000071,0.00000107,-0.000
 00071,0.00000364,-0.00000188,0.00000507,0.00000094,0.00000013,0.000001
 51,0.00000121,0.00000575,0.00000261,-0.00004626,-0.00006237,-0.0001045
 3,0.00014832,-0.00007747,0.00006132,-0.00006592,0.00000765,0.00003642,
 -0.00010482,0.00000313,0.00009513,-0.00002193,0.00011523,0.00001081,-0
 .00003170,0.00003589,-0.00022291,0.00003639,-0.00000744,0.00000039,-0.
 00002682,-0.00000272,0.00003692,-0.00000672,0.00000095,-0.00000540,0.0
 0000110,0.00000185,0.00000156,-0.00000732,0.00001070,-0.00000513,0.000
 00934,0.00001460,-0.00000192,-0.00230444,-0.00039684,0.00326375,-0.001
 23079,0.00042605,0.00110478,0.00402557,0.05889603,0.18341683\\-0.00000
 020,-0.00000189,0.00000073,0.00000160,-0.00000371,-0.00000327,0.000000
 38,-0.00000212,-0.00000005,-0.00000191,-0.00000300,0.00000254,-0.00000
 099,-0.00000191,-0.00000333,-0.00000072,0.00000117,-0.00000135,0.00000
 077,-0.00000093,-0.00000073,0.00000023,-0.00000351,-0.00000028,-0.0000
 0277,-0.00000375,-0.00000068,-0.00000054,-0.00000480,-0.00000027,-0.00
 000035,-0.00000474,0.00000043,-0.00000124,-0.00000095,-0.00000195,-0.0
 0000040,0.00000004,-0.00000319,-0.00000132,-0.00000191,-0.00000351,-0.
 00000001,-0.00000150,-0.00000210,-0.00000066,0.00000147,-0.00000312,-0
 .00000080,0.00000065,-0.00000263,0.00000060,0.00000123,-0.00000146,-0.
 00000036,0.00000113,0.00000013,-0.00000077,-0.00000047,-0.00000266,-0.
 00000098,-0.00000104,-0.00000196,-0.00000064,0.00000170,-0.00000118,-0
 .00000007,0.00000218,-0.00000160,-0.00000042,0.00000139,-0.00000288,-0
 .00000062,0.00000030,-0.00000288,-0.00000034,0.00000042,-0.00000122,0.
 00000027,0.00000225,0.00000061,0.00000091,0.00000149,0.00000153,0.0000
 0068,0.00000274,0.00000144,0.00000121,0.00000317,-0.00000121,-0.000001
 25,0.00000079,0.00000034,0.00000113,0.00000003,0.00000060,0.00000020,-
 0.00000035,0.00000401,0.00000182,-0.00000065,0.00000281,0.00000088,-0.
 00000043,0.00000302,0.00000079,-0.00000199,0.00000326,0.00000044,-0.00
 000098,0.00000417,0.00000129,0.00000108,0.00000329,0.00000066,0.000000
 73,0.00000214,0.00000066,-0.00000059,0.00000223,0.00000094,0.00000234,
 0.00000207,-0.00000106,-0.00000107,-0.00000343,-0.00000074,-0.00000095
 ,-0.00000199,-0.00000073,-0.00000098,-0.00000246,-0.00000098,0.0000011
 5,-0.00000331,-0.00000043,0.00000111,-0.00000241,-0.00000065,0.0000022
 3,-0.00000330,-0.00000040,0.00000241,-0.00000270,-0.00000027,0.0000030
 7,-0.00000158,0.00000057,0.00000213,0.00000034,0.00000011,0.00000259,-
 0.00000124,0.00000030,0.00000258,0.00000027,0.00000046,0.00000307,-0.0
 0000077,-0.00000021,0.00000057,-0.00000113,0.00000104,-0.00000053,0.00
 000355,0.00000010,-0.00000150,0.00000279,0.00000128,0.00000110,0.00000
 358,0.00000031,0.00000010,0.00000099,0.00000144,0.00000113,0.00000407,
 0.00000118,0.00000140,0.00000302,0.00000103,-0.00000124,0.00000392,0.0
 0000043,0.00000109,0.00000063,0.00000085,-0.00000005,0.00000287,-0.000
 00033,-0.00000439,0.00000208,-0.00000140,-0.00000003,0.00000436\\\@


 LENDING MONEY TO FRIENDS CAUSES THEM TO LOSE THEIR MEMORIES.

    --  PETER'S THEORY OF RECIPROCAL INHIBITION OF FISCAL RECALL
 Job cpu time:       0 days  9 hours 49 minutes 14.5 seconds.
 File lengths (MBytes):  RWF=   2828 Int=      0 D2E=      0 Chk=     29 Scr=      1
 Normal termination of Gaussian 09 at Wed May 17 10:48:17 2023.
