 Entering Gaussian System, Link 0=g09
 Input=AF57-helio.com
 Output=AF57-helio.log
 Initial command:
 /home/scr/programs/g09/l1.exe "/home/scr/guest2/Gau-3253.inp" -scrdir="/home/scr/guest2/"
 Entering Link 1 = /home/scr/programs/g09/l1.exe PID=      3255.
  
 Copyright (c) 1988,1990,1992,1993,1995,1998,2003,2009,2013,
            Gaussian, Inc.  All Rights Reserved.
  
 This is part of the Gaussian(R) 09 program.  It is based on
 the Gaussian(R) 03 system (copyright 2003, Gaussian, Inc.),
 the Gaussian(R) 98 system (copyright 1998, Gaussian, Inc.),
 the Gaussian(R) 94 system (copyright 1995, Gaussian, Inc.),
 the Gaussian 92(TM) system (copyright 1992, Gaussian, Inc.),
 the Gaussian 90(TM) system (copyright 1990, Gaussian, Inc.),
 the Gaussian 88(TM) system (copyright 1988, Gaussian, Inc.),
 the Gaussian 86(TM) system (copyright 1986, Carnegie Mellon
 University), and the Gaussian 82(TM) system (copyright 1983,
 Carnegie Mellon University). Gaussian is a federally registered
 trademark of Gaussian, Inc.
  
 This software contains proprietary and confidential information,
 including trade secrets, belonging to Gaussian, Inc.
  
 This software is provided under written license and may be
 used, copied, transmitted, or stored only in accord with that
 written license.
  
 The following legend is applicable only to US Government
 contracts under FAR:
  
                    RESTRICTED RIGHTS LEGEND
  
 Use, reproduction and disclosure by the US Government is
 subject to restrictions as set forth in subparagraphs (a)
 and (c) of the Commercial Computer Software - Restricted
 Rights clause in FAR 52.227-19.
  
 Gaussian, Inc.
 340 Quinnipiac St., Bldg. 40, Wallingford CT 06492
  
  
 ---------------------------------------------------------------
 Warning -- This program may not be used in any manner that
 competes with the business of Gaussian, Inc. or will provide
 assistance to any competitor of Gaussian, Inc.  The licensee
 of this program is prohibited from giving any competitor of
 Gaussian, Inc. access to this program.  By using this program,
 the user acknowledges that Gaussian, Inc. is engaged in the
 business of creating and licensing software in the field of
 computational chemistry and represents and warrants to the
 licensee that it is not a competitor of Gaussian, Inc. and that
 it will not use this program in any manner prohibited above.
 ---------------------------------------------------------------
  

 Cite this work as:
 Gaussian 09, Revision D.01,
 M. J. Frisch, G. W. Trucks, H. B. Schlegel, G. E. Scuseria, 
 M. A. Robb, J. R. Cheeseman, G. Scalmani, V. Barone, B. Mennucci, 
 G. A. Petersson, H. Nakatsuji, M. Caricato, X. Li, H. P. Hratchian, 
 A. F. Izmaylov, J. Bloino, G. Zheng, J. L. Sonnenberg, M. Hada, 
 M. Ehara, K. Toyota, R. Fukuda, J. Hasegawa, M. Ishida, T. Nakajima, 
 Y. Honda, O. Kitao, H. Nakai, T. Vreven, J. A. Montgomery, Jr., 
 J. E. Peralta, F. Ogliaro, M. Bearpark, J. J. Heyd, E. Brothers, 
 K. N. Kudin, V. N. Staroverov, T. Keith, R. Kobayashi, J. Normand, 
 K. Raghavachari, A. Rendell, J. C. Burant, S. S. Iyengar, J. Tomasi, 
 M. Cossi, N. Rega, J. M. Millam, M. Klene, J. E. Knox, J. B. Cross, 
 V. Bakken, C. Adamo, J. Jaramillo, R. Gomperts, R. E. Stratmann, 
 O. Yazyev, A. J. Austin, R. Cammi, C. Pomelli, J. W. Ochterski, 
 R. L. Martin, K. Morokuma, V. G. Zakrzewski, G. A. Voth, 
 P. Salvador, J. J. Dannenberg, S. Dapprich, A. D. Daniels, 
 O. Farkas, J. B. Foresman, J. V. Ortiz, J. Cioslowski, 
 and D. J. Fox, Gaussian, Inc., Wallingford CT, 2013.
 
 ******************************************
 Gaussian 09:  EM64L-G09RevD.01 24-Apr-2013
                18-May-2023 
 ******************************************
 %mem=30000MB
 %nprocshared=8
 Will use up to    8 processors via shared memory.
 ----------------------------------------
 # opt freq=noraman b3lyp/gen pseudo=read
 ----------------------------------------
 1/14=-1,18=20,19=15,26=3,38=1/1,3;
 2/9=110,12=2,17=6,18=5,40=1/2;
 3/5=7,11=2,16=1,17=8,25=1,30=1,71=1,74=-5/1,2,3;
 4//1;
 5/5=2,38=5/2;
 6/7=2,8=2,9=2,10=2,28=1/1;
 7//1,2,3,16;
 1/14=-1,18=20,19=15,26=3/3(2);
 2/9=110/2;
 99//99;
 2/9=110/2;
 3/5=7,6=1,11=2,16=1,17=8,25=1,30=1,71=1,74=-5,82=7/1,2,3;
 4/5=5,16=3,69=1/1;
 5/5=2,38=5/2;
 7//1,2,3,16;
 1/14=-1,18=20,19=15,26=3/3(-5);
 2/9=110/2;
 6/7=2,8=2,9=2,10=2,19=2,28=1/1;
 99/9=1/99;
 --
 af
 --
 Symbolic Z-matrix:
 Charge =  0 Multiplicity = 1
 Au                   -0.83524   0.00275  -0.07747 
 Cl                   -3.11278   0.01258   0.27483 
 C                     2.02352  -1.53469   0.28913 
 C                     3.52227  -1.73194   0.15087 
 H                     1.46963  -2.31822  -0.23552 
 H                     1.70141  -1.53308   1.33309 
 H                     3.78233  -2.72522   0.53085 
 H                     3.84009  -1.67149  -0.89403 
 H                     4.08637  -0.99907   0.73349 
 C                     2.13036   1.31373   0.57048 
 C                     3.40684   1.89712  -0.01189 
 H                     2.27568   0.88637   1.56646 
 H                     1.35138   2.0749    0.64431 
 H                     3.77116   2.68993   0.64978 
 H                     4.19681   1.14869  -0.11067 
 H                     3.22329   2.33448  -0.9974 
 S                     1.41906   0.00105  -0.48523 
 

 GradGradGradGradGradGradGradGradGradGradGradGradGradGradGradGradGradGrad
 Berny optimization.
 Initialization pass.
                           ----------------------------
                           !    Initial Parameters    !
                           ! (Angstroms and Degrees)  !
 --------------------------                            --------------------------
 ! Name  Definition              Value          Derivative Info.                !
 --------------------------------------------------------------------------------
 ! R1    R(1,2)                  2.3046         estimate D2E/DX2                !
 ! R2    R(1,17)                 2.2909         estimate D2E/DX2                !
 ! R3    R(3,4)                  1.518          estimate D2E/DX2                !
 ! R4    R(3,5)                  1.0936         estimate D2E/DX2                !
 ! R5    R(3,6)                  1.0925         estimate D2E/DX2                !
 ! R6    R(3,17)                 1.823          estimate D2E/DX2                !
 ! R7    R(4,7)                  1.0948         estimate D2E/DX2                !
 ! R8    R(4,8)                  1.0938         estimate D2E/DX2                !
 ! R9    R(4,9)                  1.093          estimate D2E/DX2                !
 ! R10   R(10,11)                1.5195         estimate D2E/DX2                !
 ! R11   R(10,12)                1.0935         estimate D2E/DX2                !
 ! R12   R(10,13)                1.0916         estimate D2E/DX2                !
 ! R13   R(10,17)                1.8285         estimate D2E/DX2                !
 ! R14   R(11,14)                1.095          estimate D2E/DX2                !
 ! R15   R(11,15)                1.0927         estimate D2E/DX2                !
 ! R16   R(11,16)                1.0937         estimate D2E/DX2                !
 ! A1    A(4,3,5)              111.3012         estimate D2E/DX2                !
 ! A2    A(4,3,6)              112.2297         estimate D2E/DX2                !
 ! A3    A(4,3,17)             113.4616         estimate D2E/DX2                !
 ! A4    A(5,3,6)              108.0684         estimate D2E/DX2                !
 ! A5    A(5,3,17)             103.4058         estimate D2E/DX2                !
 ! A6    A(6,3,17)             107.8712         estimate D2E/DX2                !
 ! A7    A(3,4,7)              108.7117         estimate D2E/DX2                !
 ! A8    A(3,4,8)              111.5124         estimate D2E/DX2                !
 ! A9    A(3,4,9)              111.9545         estimate D2E/DX2                !
 ! A10   A(7,4,8)              108.2199         estimate D2E/DX2                !
 ! A11   A(7,4,9)              107.5            estimate D2E/DX2                !
 ! A12   A(8,4,9)              108.7946         estimate D2E/DX2                !
 ! A13   A(11,10,12)           112.7981         estimate D2E/DX2                !
 ! A14   A(11,10,13)           110.9574         estimate D2E/DX2                !
 ! A15   A(11,10,17)           112.4034         estimate D2E/DX2                !
 ! A16   A(12,10,13)           107.8027         estimate D2E/DX2                !
 ! A17   A(12,10,17)           107.2776         estimate D2E/DX2                !
 ! A18   A(13,10,17)           105.191          estimate D2E/DX2                !
 ! A19   A(10,11,14)           109.0189         estimate D2E/DX2                !
 ! A20   A(10,11,15)           112.272          estimate D2E/DX2                !
 ! A21   A(10,11,16)           110.9707         estimate D2E/DX2                !
 ! A22   A(14,11,15)           108.0598         estimate D2E/DX2                !
 ! A23   A(14,11,16)           108.1067         estimate D2E/DX2                !
 ! A24   A(15,11,16)           108.2865         estimate D2E/DX2                !
 ! A25   A(1,17,3)             104.5539         estimate D2E/DX2                !
 ! A26   A(1,17,10)            106.2296         estimate D2E/DX2                !
 ! A27   A(3,17,10)            103.3287         estimate D2E/DX2                !
 ! A28   L(2,1,17,13,-1)       180.4908         estimate D2E/DX2                !
 ! A29   L(2,1,17,13,-2)       181.8405         estimate D2E/DX2                !
 ! D1    D(5,3,4,7)            -57.0674         estimate D2E/DX2                !
 ! D2    D(5,3,4,8)             62.1639         estimate D2E/DX2                !
 ! D3    D(5,3,4,9)           -175.6775         estimate D2E/DX2                !
 ! D4    D(6,3,4,7)             64.1963         estimate D2E/DX2                !
 ! D5    D(6,3,4,8)           -176.5724         estimate D2E/DX2                !
 ! D6    D(6,3,4,9)            -54.4138         estimate D2E/DX2                !
 ! D7    D(17,3,4,7)          -173.2033         estimate D2E/DX2                !
 ! D8    D(17,3,4,8)           -53.9719         estimate D2E/DX2                !
 ! D9    D(17,3,4,9)            68.1867         estimate D2E/DX2                !
 ! D10   D(4,3,17,1)          -179.2972         estimate D2E/DX2                !
 ! D11   D(4,3,17,10)          -68.3041         estimate D2E/DX2                !
 ! D12   D(5,3,17,1)            60.0025         estimate D2E/DX2                !
 ! D13   D(5,3,17,10)          170.9956         estimate D2E/DX2                !
 ! D14   D(6,3,17,1)           -54.3188         estimate D2E/DX2                !
 ! D15   D(6,3,17,10)           56.6742         estimate D2E/DX2                !
 ! D16   D(12,10,11,14)        -59.8386         estimate D2E/DX2                !
 ! D17   D(12,10,11,15)         59.8654         estimate D2E/DX2                !
 ! D18   D(12,10,11,16)       -178.7964         estimate D2E/DX2                !
 ! D19   D(13,10,11,14)         61.2346         estimate D2E/DX2                !
 ! D20   D(13,10,11,15)       -179.0615         estimate D2E/DX2                !
 ! D21   D(13,10,11,16)        -57.7233         estimate D2E/DX2                !
 ! D22   D(17,10,11,14)        178.712          estimate D2E/DX2                !
 ! D23   D(17,10,11,15)        -61.584          estimate D2E/DX2                !
 ! D24   D(17,10,11,16)         59.7542         estimate D2E/DX2                !
 ! D25   D(11,10,17,1)        -152.595          estimate D2E/DX2                !
 ! D26   D(11,10,17,3)          97.6542         estimate D2E/DX2                !
 ! D27   D(12,10,17,1)          82.8536         estimate D2E/DX2                !
 ! D28   D(12,10,17,3)         -26.8972         estimate D2E/DX2                !
 ! D29   D(13,10,17,1)         -31.7436         estimate D2E/DX2                !
 ! D30   D(13,10,17,3)        -141.4944         estimate D2E/DX2                !
 --------------------------------------------------------------------------------
 Trust Radius=3.00D-01 FncErr=1.00D-07 GrdErr=1.00D-06
 Number of steps in this run=     85 maximum allowed number of steps=    102.
 GradGradGradGradGradGradGradGradGradGradGradGradGradGradGradGradGradGrad

                          Input orientation:                          
 ---------------------------------------------------------------------
 Center     Atomic      Atomic             Coordinates (Angstroms)
 Number     Number       Type             X           Y           Z
 ---------------------------------------------------------------------
      1         79           0       -0.835239    0.002746   -0.077473
      2         17           0       -3.112777    0.012576    0.274829
      3          6           0        2.023516   -1.534694    0.289128
      4          6           0        3.522268   -1.731939    0.150867
      5          1           0        1.469628   -2.318220   -0.235521
      6          1           0        1.701405   -1.533079    1.333094
      7          1           0        3.782333   -2.725224    0.530853
      8          1           0        3.840091   -1.671491   -0.894031
      9          1           0        4.086368   -0.999071    0.733493
     10          6           0        2.130357    1.313727    0.570480
     11          6           0        3.406844    1.897120   -0.011886
     12          1           0        2.275682    0.886374    1.566464
     13          1           0        1.351384    2.074901    0.644313
     14          1           0        3.771162    2.689934    0.649784
     15          1           0        4.196808    1.148687   -0.110668
     16          1           0        3.223294    2.334475   -0.997400
     17         16           0        1.419064    0.001045   -0.485227
 ---------------------------------------------------------------------
                    Distance matrix (angstroms):
                    1          2          3          4          5
     1  Au   0.000000
     2  Cl   2.304646   0.000000
     3  C    3.266588   5.364304   0.000000
     4  C    4.695651   6.861670   1.517985   0.000000
     5  H    3.274794   5.166382   1.093600   2.169413   0.000000
     6  H    3.283751   5.165784   1.092531   2.180080   1.769384
     7  H    5.397578   7.423183   2.137576   1.094823   2.470139
     8  H    5.032747   7.248772   2.172216   1.093836   2.543814
     9  H    5.087585   7.284332   2.177088   1.093050   3.086498
    10  C    3.306550   5.410255   2.864276   3.374844   3.778523
    11  C    4.646313   6.792582   3.712351   3.634540   4.644557
    12  H    3.627831   5.609575   2.748953   3.226988   3.763814
    13  H    3.097761   4.931373   3.688779   4.410018   4.481919
    14  H    5.382268   7.395773   4.586046   4.456885   5.582332
    15  H    5.160986   7.407387   3.476143   2.970086   4.412770
    16  H    4.770211   6.866992   4.250305   4.235992   5.030246
    17  S    2.290884   4.595150   1.823042   2.798449   2.333217
                    6          7          8          9         10
     6  H    0.000000
     7  H    2.528846   0.000000
     8  H    3.090829   1.773128   0.000000
     9  H    2.516492   1.764399   1.778099   0.000000
    10  C    2.978235   4.363911   3.738918   3.033412   0.000000
    11  C    4.060020   4.669221   3.701468   3.066800   1.519512
    12  H    2.497601   4.047978   3.878670   2.743598   1.093496
    13  H    3.689777   5.381783   4.753485   4.115507   1.091621
    14  H    4.752331   5.416475   4.627110   3.703393   2.143006
    15  H    3.937430   3.948484   2.948611   2.310340   2.182068
    16  H    4.765010   5.314945   4.054490   3.854013   2.166722
    17  S    2.395735   3.748333   2.970836   3.098390   1.828548
                   11         12         13         14         15
    11  C    0.000000
    12  H    2.189138   0.000000
    13  H    2.164976   1.765584   0.000000
    14  H    1.095029   2.515868   2.496722   0.000000
    15  H    1.092682   2.563651   3.086148   1.770566   0.000000
    16  H    1.093713   3.093277   2.503327   1.771927   1.772037
    17  S    2.787548   2.393123   2.362482   3.748432   3.028735
                   16         17
    16  H    0.000000
    17  S    2.993737   0.000000
 Stoichiometry    C4H10AuClS
 Framework group  C1[X(C4H10AuClS)]
 Deg. of freedom    45
 Full point group                 C1      NOp   1
 Largest Abelian subgroup         C1      NOp   1
 Largest concise Abelian subgroup C1      NOp   1
                         Standard orientation:                         
 ---------------------------------------------------------------------
 Center     Atomic      Atomic             Coordinates (Angstroms)
 Number     Number       Type             X           Y           Z
 ---------------------------------------------------------------------
      1         79           0       -0.835239    0.002746   -0.077473
      2         17           0       -3.112777    0.012576    0.274829
      3          6           0        2.023516   -1.534694    0.289128
      4          6           0        3.522268   -1.731939    0.150867
      5          1           0        1.469628   -2.318220   -0.235521
      6          1           0        1.701405   -1.533079    1.333094
      7          1           0        3.782333   -2.725224    0.530853
      8          1           0        3.840091   -1.671491   -0.894031
      9          1           0        4.086368   -0.999071    0.733493
     10          6           0        2.130357    1.313727    0.570480
     11          6           0        3.406844    1.897120   -0.011886
     12          1           0        2.275682    0.886374    1.566464
     13          1           0        1.351384    2.074901    0.644313
     14          1           0        3.771162    2.689934    0.649784
     15          1           0        4.196808    1.148687   -0.110668
     16          1           0        3.223294    2.334475   -0.997400
     17         16           0        1.419064    0.001045   -0.485227
 ---------------------------------------------------------------------
 Rotational constants (GHZ):      2.6501350      0.4839520      0.4259126
 General basis read from cards:  (5D, 7F)
 ======================================================================================================
                                       Pseudopotential Parameters
 ======================================================================================================
  Center     Atomic      Valence      Angular      Power
  Number     Number     Electrons     Momentum     of R      Exponent        Coefficient   SO-Coeffient
 ======================================================================================================
    1         79           19
                                      G and up 
                                                     1      622.6287956      -60.00000000    0.00000000
                                                     2      136.2843607     -555.52923120    0.00000000
                                                     2       33.1549781     -168.00197850    0.00000000
                                                     2        9.9894895      -63.03998750    0.00000000
                                                     2        3.0481312       -4.25166810    0.00000000
                                      S - G
                                                     0      194.7374304        3.00000000    0.00000000
                                                     1      351.5327447       38.60208800    0.00000000
                                                     2      122.3270402      864.83707270    0.00000000
                                                     2       32.0914617      374.99355200    0.00000000
                                                     2        5.2451812      289.79101000    0.00000000
                                                     2        4.4916223     -152.45327730    0.00000000
                                      P - G
                                                     0      420.6158801        2.00000000    0.00000000
                                                     1      109.4417815       73.88856250    0.00000000
                                                     2       34.1714280      326.67298720    0.00000000
                                                     2        5.9879750      126.58145910    0.00000000
                                      D - G
                                                     0      219.2666158        3.00000000    0.00000000
                                                     1      122.7297786       55.67931490    0.00000000
                                                     2       63.1063369      449.19873350    0.00000000
                                                     2       18.3684520      215.02690910    0.00000000
                                                     2        4.4972844       64.08409950    0.00000000
                                      F - G
                                                     0      108.5506037        4.00000000    0.00000000
                                                     1       56.4795527       51.80653350    0.00000000
                                                     2       29.2069159      231.21831130    0.00000000
                                                     2        9.5440543      119.00473860    0.00000000
                                                     2        2.8965118       15.34241880    0.00000000
    2         17
                                   No pseudopotential on this center.
    3          6
                                   No pseudopotential on this center.
    4          6
                                   No pseudopotential on this center.
    5          1
                                   No pseudopotential on this center.
    6          1
                                   No pseudopotential on this center.
    7          1
                                   No pseudopotential on this center.
    8          1
                                   No pseudopotential on this center.
    9          1
                                   No pseudopotential on this center.
   10          6
                                   No pseudopotential on this center.
   11          6
                                   No pseudopotential on this center.
   12          1
                                   No pseudopotential on this center.
   13          1
                                   No pseudopotential on this center.
   14          1
                                   No pseudopotential on this center.
   15          1
                                   No pseudopotential on this center.
   16          1
                                   No pseudopotential on this center.
   17         16
                                   No pseudopotential on this center.
 ======================================================================================================
 There are   166 symmetry adapted cartesian basis functions of A   symmetry.
 There are   154 symmetry adapted basis functions of A   symmetry.
   154 basis functions,   304 primitive gaussians,   166 cartesian basis functions
    43 alpha electrons       43 beta electrons
       nuclear repulsion energy       551.1099954660 Hartrees.
 NAtoms=   17 NActive=   17 NUniq=   17 SFac= 1.00D+00 NAtFMM=   60 NAOKFM=F Big=F
 Integral buffers will be    131072 words long.
 Raffenetti 2 integral format.
 Two-electron integral symmetry is turned on.
 One-electron integrals computed using PRISM.
   1 Symmetry operations used in ECPInt.
 ECPInt:  NShTT=    1830 NPrTT=    8946 LenC2=    1757 LenP2D=    6157.
 LDataN:  DoStor=T MaxTD1= 7 Len=  274
 NBasis=   154 RedAO= T EigKep=  3.56D-03  NBF=   154
 NBsUse=   154 1.00D-06 EigRej= -1.00D+00 NBFU=   154
 Defaulting to unpruned grid for atomic number  79.
 ExpMin= 2.79D-02 ExpMax= 2.52D+04 ExpMxC= 3.78D+03 IAcc=3 IRadAn=         5 AccDes= 0.00D+00
 Harris functional with IExCor=  402 and IRadAn=       5 diagonalized for initial guess.
 HarFok:  IExCor=  402 AccDes= 0.00D+00 IRadAn=         5 IDoV= 1 UseB2=F ITyADJ=14
 ICtDFT=  3500011 ScaDFX=  1.000000  1.000000  1.000000  1.000000
 Defaulting to unpruned grid for atomic number  79.
 Defaulting to unpruned grid for atomic number  79.
 Defaulting to unpruned grid for atomic number  79.
 Defaulting to unpruned grid for atomic number  79.
 Defaulting to unpruned grid for atomic number  79.
 Defaulting to unpruned grid for atomic number  79.
 Defaulting to unpruned grid for atomic number  79.
 Defaulting to unpruned grid for atomic number  79.
 FoFCou: FMM=F IPFlag=           0 FMFlag=      100000 FMFlg1=           0
         NFxFlg=           0 DoJE=T BraDBF=F KetDBF=T FulRan=T
         wScrn=  0.000000 ICntrl=     500 IOpCl=  0 I1Cent=   200000004 NGrid=           0
         NMat0=    1 NMatS0=      1 NMatT0=    0 NMatD0=    1 NMtDS0=    0 NMtDT0=    0
 Petite list used in FoFCou.
 Keep R1 ints in memory in canonical form, NReq=73660518.
 Requested convergence on RMS density matrix=1.00D-08 within 128 cycles.
 Requested convergence on MAX density matrix=1.00D-06.
 Requested convergence on             energy=1.00D-06.
 No special actions if energy rises.
 Defaulting to unpruned grid for atomic number  79.
 Defaulting to unpruned grid for atomic number  79.
 Defaulting to unpruned grid for atomic number  79.
 Defaulting to unpruned grid for atomic number  79.
 Defaulting to unpruned grid for atomic number  79.
 Defaulting to unpruned grid for atomic number  79.
 Defaulting to unpruned grid for atomic number  79.
 Defaulting to unpruned grid for atomic number  79.
 SCF Done:  E(RB3LYP) =  -1152.37615043     A.U. after   13 cycles
            NFock= 13  Conv=0.26D-08     -V/T= 2.0898

 **********************************************************************

            Population analysis using the SCF density.

 **********************************************************************

 Orbital symmetries:
       Occupied  (A) (A) (A) (A) (A) (A) (A) (A) (A) (A) (A) (A)
                 (A) (A) (A) (A) (A) (A) (A) (A) (A) (A) (A) (A)
                 (A) (A) (A) (A) (A) (A) (A) (A) (A) (A) (A) (A)
                 (A) (A) (A) (A) (A) (A) (A)
       Virtual   (A) (A) (A) (A) (A) (A) (A) (A) (A) (A) (A) (A)
                 (A) (A) (A) (A) (A) (A) (A) (A) (A) (A) (A) (A)
                 (A) (A) (A) (A) (A) (A) (A) (A) (A) (A) (A) (A)
                 (A) (A) (A) (A) (A) (A) (A) (A) (A) (A) (A) (A)
                 (A) (A) (A) (A) (A) (A) (A) (A) (A) (A) (A) (A)
                 (A) (A) (A) (A) (A) (A) (A) (A) (A) (A) (A) (A)
                 (A) (A) (A) (A) (A) (A) (A) (A) (A) (A) (A) (A)
                 (A) (A) (A) (A) (A) (A) (A) (A) (A) (A) (A) (A)
                 (A) (A) (A) (A) (A) (A) (A) (A) (A) (A) (A) (A)
                 (A) (A) (A)
 The electronic state is 1-A.
 Alpha  occ. eigenvalues -- -101.45702 -88.93216 -10.24908 -10.24836 -10.21176
 Alpha  occ. eigenvalues --  -10.20838  -9.38788  -8.00694  -7.14861  -7.14262
 Alpha  occ. eigenvalues --   -7.14251  -5.96991  -5.96750  -5.96268  -4.17019
 Alpha  occ. eigenvalues --   -2.31859  -2.29606  -2.29457  -0.87316  -0.80612
 Alpha  occ. eigenvalues --   -0.74813  -0.73792  -0.66576  -0.62366  -0.51801
 Alpha  occ. eigenvalues --   -0.49978  -0.48661  -0.46334  -0.43065  -0.43019
 Alpha  occ. eigenvalues --   -0.41682  -0.40283  -0.39871  -0.37612  -0.36456
 Alpha  occ. eigenvalues --   -0.33731  -0.32330  -0.30544  -0.30527  -0.29452
 Alpha  occ. eigenvalues --   -0.27122  -0.24557  -0.24245
 Alpha virt. eigenvalues --   -0.02464  -0.02129  -0.00600   0.02911   0.03663
 Alpha virt. eigenvalues --    0.03931   0.07657   0.07887   0.10096   0.11536
 Alpha virt. eigenvalues --    0.12449   0.12732   0.13204   0.13335   0.14935
 Alpha virt. eigenvalues --    0.16411   0.18388   0.18526   0.18692   0.20012
 Alpha virt. eigenvalues --    0.25837   0.27094   0.33001   0.34785   0.36202
 Alpha virt. eigenvalues --    0.37706   0.38507   0.40432   0.41256   0.45884
 Alpha virt. eigenvalues --    0.48752   0.52627   0.53839   0.54372   0.54528
 Alpha virt. eigenvalues --    0.55576   0.55833   0.57477   0.61365   0.62314
 Alpha virt. eigenvalues --    0.65068   0.68224   0.69251   0.70275   0.73046
 Alpha virt. eigenvalues --    0.77222   0.82288   0.83165   0.83434   0.84789
 Alpha virt. eigenvalues --    0.85405   0.86687   0.87138   0.89781   0.90306
 Alpha virt. eigenvalues --    0.92694   0.93593   0.94444   0.94593   0.95200
 Alpha virt. eigenvalues --    0.96763   0.98009   1.00009   1.01978   1.03908
 Alpha virt. eigenvalues --    1.04344   1.11752   1.13016   1.25164   1.43872
 Alpha virt. eigenvalues --    1.48525   1.51083   1.53421   1.56152   1.60104
 Alpha virt. eigenvalues --    1.79355   1.80026   1.87065   1.90133   1.91938
 Alpha virt. eigenvalues --    1.92717   1.93623   1.95343   1.97863   1.98384
 Alpha virt. eigenvalues --    1.98695   1.99457   1.99577   1.99716   1.99961
 Alpha virt. eigenvalues --    2.00344   2.00514   2.05692   2.07315   2.08606
 Alpha virt. eigenvalues --    2.16361   2.22094   2.22668   2.23194   2.25661
 Alpha virt. eigenvalues --    2.28073   2.29230   2.30661   2.32093   2.57206
 Alpha virt. eigenvalues --    2.57407   2.60897  15.57432  15.57961  15.65224
 Alpha virt. eigenvalues --   43.06316
          Condensed to atoms (all electrons):
               1          2          3          4          5          6
     1  Au  18.510128   0.250045  -0.031462   0.003731  -0.002393   0.000841
     2  Cl   0.250045  17.135148   0.000054   0.000000  -0.000030  -0.000017
     3  C   -0.031462   0.000054   5.240816   0.341383   0.381235   0.378345
     4  C    0.003731   0.000000   0.341383   5.092703  -0.032267  -0.038991
     5  H   -0.002393  -0.000030   0.381235  -0.032267   0.504027  -0.025750
     6  H    0.000841  -0.000017   0.378345  -0.038991  -0.025750   0.525903
     7  H   -0.000261   0.000000  -0.027968   0.372174  -0.004354  -0.001829
     8  H    0.001025   0.000000  -0.035452   0.381170  -0.003024   0.004266
     9  H   -0.000156   0.000000  -0.034838   0.382100   0.004176  -0.004016
    10  C   -0.031239   0.000022  -0.016393  -0.000912   0.002882  -0.005281
    11  C    0.002738   0.000000  -0.000338  -0.001242  -0.000094  -0.000165
    12  H    0.003321  -0.000009  -0.006265  -0.000280   0.000149   0.005662
    13  H   -0.001124  -0.000013   0.002420  -0.000022  -0.000071   0.000093
    14  H   -0.000309   0.000000  -0.000081   0.000001   0.000002   0.000008
    15  H    0.000049   0.000000   0.000288   0.001031  -0.000027   0.000033
    16  H    0.001409   0.000000  -0.000032   0.000039   0.000004   0.000005
    17  S    0.235213  -0.003561   0.227606  -0.042950  -0.044505  -0.049449
               7          8          9         10         11         12
     1  Au  -0.000261   0.001025  -0.000156  -0.031239   0.002738   0.003321
     2  Cl   0.000000   0.000000   0.000000   0.000022   0.000000  -0.000009
     3  C   -0.027968  -0.035452  -0.034838  -0.016393  -0.000338  -0.006265
     4  C    0.372174   0.381170   0.382100  -0.000912  -0.001242  -0.000280
     5  H   -0.004354  -0.003024   0.004176   0.002882  -0.000094   0.000149
     6  H   -0.001829   0.004266  -0.004016  -0.005281  -0.000165   0.005662
     7  H    0.536150  -0.026658  -0.027837  -0.000052   0.000058  -0.000082
     8  H   -0.026658   0.529020  -0.029566  -0.000668   0.000008   0.000116
     9  H   -0.027837  -0.029566   0.546110   0.003014  -0.001228   0.001161
    10  C   -0.000052  -0.000668   0.003014   5.270921   0.344071   0.367944
    11  C    0.000058   0.000008  -0.001228   0.344071   5.082207  -0.034938
    12  H   -0.000082   0.000116   0.001161   0.367944  -0.034938   0.534525
    13  H    0.000003  -0.000007  -0.000011   0.387997  -0.034888  -0.024359
    14  H   -0.000001   0.000002   0.000101  -0.028438   0.370293  -0.002590
    15  H    0.000037   0.000420   0.003473  -0.035812   0.380201  -0.003194
    16  H   -0.000002   0.000009   0.000015  -0.036530   0.385180   0.004211
    17  S    0.004586   0.001534  -0.006739   0.207818  -0.041724  -0.041116
              13         14         15         16         17
     1  Au  -0.001124  -0.000309   0.000049   0.001409   0.235213
     2  Cl  -0.000013   0.000000   0.000000   0.000000  -0.003561
     3  C    0.002420  -0.000081   0.000288  -0.000032   0.227606
     4  C   -0.000022   0.000001   0.001031   0.000039  -0.042950
     5  H   -0.000071   0.000002  -0.000027   0.000004  -0.044505
     6  H    0.000093   0.000008   0.000033   0.000005  -0.049449
     7  H    0.000003  -0.000001   0.000037  -0.000002   0.004586
     8  H   -0.000007   0.000002   0.000420   0.000009   0.001534
     9  H   -0.000011   0.000101   0.003473   0.000015  -0.006739
    10  C    0.387997  -0.028438  -0.035812  -0.036530   0.207818
    11  C   -0.034888   0.370293   0.380201   0.385180  -0.041724
    12  H   -0.024359  -0.002590  -0.003194   0.004211  -0.041116
    13  H    0.488828  -0.002892   0.004048  -0.003861  -0.048929
    14  H   -0.002892   0.543386  -0.027790  -0.027110   0.004678
    15  H    0.004048  -0.027790   0.541510  -0.027548  -0.002716
    16  H   -0.003861  -0.027110  -0.027548   0.524840  -0.001223
    17  S   -0.048929   0.004678  -0.002716  -0.001223  15.416141
 Mulliken charges:
               1
     1  Au   0.058445
     2  Cl  -0.381638
     3  C   -0.419317
     4  C   -0.457669
     5  H    0.220039
     6  H    0.210342
     7  H    0.176037
     8  H    0.177805
     9  H    0.164241
    10  C   -0.429344
    11  C   -0.450140
    12  H    0.195745
    13  H    0.232787
    14  H    0.170740
    15  H    0.165997
    16  H    0.180594
    17  S    0.185337
 Sum of Mulliken charges =   0.00000
 Mulliken charges with hydrogens summed into heavy atoms:
               1
     1  Au   0.058445
     2  Cl  -0.381638
     3  C    0.011064
     4  C    0.060414
    10  C   -0.000812
    11  C    0.067191
    17  S    0.185337
 Electronic spatial extent (au):  <R**2>=           2397.4784
 Charge=              0.0000 electrons
 Dipole moment (field-independent basis, Debye):
    X=              9.6211    Y=             -0.2425    Z=              0.6597  Tot=              9.6467
 Quadrupole moment (field-independent basis, Debye-Ang):
   XX=            -81.8137   YY=            -70.0183   ZZ=            -76.9419
   XY=             -0.4362   XZ=              3.9500   YZ=              0.4214
 Traceless Quadrupole moment (field-independent basis, Debye-Ang):
   XX=             -5.5557   YY=              6.2396   ZZ=             -0.6839
   XY=             -0.4362   XZ=              3.9500   YZ=              0.4214
 Octapole moment (field-independent basis, Debye-Ang**2):
  XXX=            -21.9598  YYY=             -1.2538  ZZZ=             -6.6009  XYY=            -15.8529
  XXY=             -1.2239  XXZ=             -0.9675  XZZ=            -29.8711  YZZ=             -0.0046
  YYZ=             -2.0533  XYZ=              0.7118
 Hexadecapole moment (field-independent basis, Debye-Ang**3):
 XXXX=          -2580.6204 YYYY=           -540.9670 ZZZZ=           -162.0636 XXXY=             -3.8340
 XXXZ=             28.8645 YYYX=             -4.4983 YYYZ=              1.7689 ZZZX=             12.6554
 ZZZY=             -0.4343 XXYY=           -482.2189 XXZZ=           -449.7511 YYZZ=           -118.4781
 XXYZ=              2.6701 YYXZ=              7.3280 ZZXY=              0.6125
 N-N= 5.511099954660D+02 E-N=-3.789976841172D+03  KE= 1.057423620191D+03
   1 Symmetry operations used in ECPInt.
 ECPInt:  NShTT=    1830 NPrTT=    8946 LenC2=    1757 LenP2D=    6157.
 LDataN:  DoStor=T MaxTD1= 8 Len=  415
 Calling FoFJK, ICntrl=      2127 FMM=F ISym2X=0 I1Cent= 0 IOpClX= 0 NMat=1 NMatS=1 NMatT=0.
 Defaulting to unpruned grid for atomic number  79.
 Defaulting to unpruned grid for atomic number  79.
 Defaulting to unpruned grid for atomic number  79.
 Defaulting to unpruned grid for atomic number  79.
 Defaulting to unpruned grid for atomic number  79.
 Defaulting to unpruned grid for atomic number  79.
 Defaulting to unpruned grid for atomic number  79.
 Defaulting to unpruned grid for atomic number  79.
 ***** Axes restored to original set *****
 -------------------------------------------------------------------
 Center     Atomic                   Forces (Hartrees/Bohr)
 Number     Number              X              Y              Z
 -------------------------------------------------------------------
      1       79          -0.014027523    0.000265661    0.001335198
      2       17           0.005145401   -0.000058364   -0.000477550
      3        6          -0.000110447   -0.004056095    0.002727651
      4        6           0.003005110   -0.002562756    0.000465678
      5        1           0.000002256   -0.001043489    0.000846400
      6        1          -0.000258330   -0.001541961    0.000830562
      7        1           0.001224561   -0.000607844    0.000092455
      8        1           0.000469703    0.000015854   -0.000342420
      9        1           0.000780045    0.000392582    0.000136468
     10        6           0.000253634    0.002709520    0.004689378
     11        6           0.002848373    0.002573326    0.000160216
     12        1           0.000240076    0.001098640    0.001445027
     13        1           0.000106956    0.000651111    0.000985681
     14        1           0.000905144    0.000859465   -0.000015503
     15        1           0.000635024   -0.000134196   -0.000338809
     16        1           0.000341531    0.000112289   -0.000490882
     17       16          -0.001561513    0.001326256   -0.012049550
 -------------------------------------------------------------------
 Cartesian Forces:  Max     0.014027523 RMS     0.003047845

 GradGradGradGradGradGradGradGradGradGradGradGradGradGradGradGradGradGrad
 Berny optimization.
 FormGI is forming the generalized inverse of G from B-inverse, IUseBI=4.
 Internal  Forces:  Max     0.011652060 RMS     0.002503001
 Search for a local minimum.
 Step number   1 out of a maximum of   85
 All quantities printed in internal units (Hartrees-Bohrs-Radians)
 Mixed Optimization -- RFO/linear search
 Second derivative matrix not updated -- first step.
 ITU=  0
     Eigenvalues ---    0.00230   0.00230   0.00230   0.00230   0.00508
     Eigenvalues ---    0.00528   0.03987   0.04081   0.05202   0.05206
     Eigenvalues ---    0.05480   0.05494   0.05619   0.05823   0.05870
     Eigenvalues ---    0.09441   0.09597   0.12763   0.12872   0.13803
     Eigenvalues ---    0.16000   0.16000   0.16000   0.16000   0.16000
     Eigenvalues ---    0.16000   0.20526   0.21333   0.21962   0.21991
     Eigenvalues ---    0.23991   0.24382   0.25000   0.30414   0.30561
     Eigenvalues ---    0.34238   0.34261   0.34373   0.34387   0.34400
     Eigenvalues ---    0.34412   0.34463   0.34505   0.34522   0.34626
 RFO step:  Lambda=-2.33301090D-03 EMin= 2.30000000D-03
 Linear search not attempted -- first point.
 Iteration  1 RMS(Cart)=  0.06896347 RMS(Int)=  0.00602126
 Iteration  2 RMS(Cart)=  0.00996009 RMS(Int)=  0.00009236
 Iteration  3 RMS(Cart)=  0.00011682 RMS(Int)=  0.00003960
 Iteration  4 RMS(Cart)=  0.00000002 RMS(Int)=  0.00003960
 Variable       Old X    -DE/DX   Delta X   Delta X   Delta X     New X
                                 (Linear)    (Quad)   (Total)
    R1        4.35515  -0.00516   0.00000  -0.02485  -0.02485   4.33030
    R2        4.32914   0.00889   0.00000   0.04124   0.04124   4.37038
    R3        2.86858   0.00573   0.00000   0.01859   0.01859   2.88717
    R4        2.06660   0.00034   0.00000   0.00098   0.00098   2.06759
    R5        2.06458   0.00087   0.00000   0.00251   0.00251   2.06709
    R6        3.44505   0.01165   0.00000   0.04734   0.04734   3.49239
    R7        2.06892   0.00088   0.00000   0.00254   0.00254   2.07146
    R8        2.06705   0.00046   0.00000   0.00132   0.00132   2.06837
    R9        2.06556   0.00074   0.00000   0.00213   0.00213   2.06769
   R10        2.87146   0.00556   0.00000   0.01813   0.01813   2.88959
   R11        2.06641   0.00092   0.00000   0.00264   0.00264   2.06905
   R12        2.06286   0.00044   0.00000   0.00126   0.00126   2.06413
   R13        3.45546   0.01143   0.00000   0.04717   0.04717   3.50263
   R14        2.06931   0.00091   0.00000   0.00264   0.00264   2.07195
   R15        2.06487   0.00059   0.00000   0.00169   0.00169   2.06656
   R16        2.06682   0.00043   0.00000   0.00125   0.00125   2.06806
    A1        1.94257  -0.00093   0.00000  -0.00830  -0.00838   1.93419
    A2        1.95878  -0.00090   0.00000  -0.00498  -0.00513   1.95365
    A3        1.98028   0.00228   0.00000   0.01432   0.01429   1.99457
    A4        1.88615  -0.00023   0.00000  -0.01303  -0.01313   1.87302
    A5        1.80477  -0.00013   0.00000   0.00436   0.00440   1.80918
    A6        1.88271  -0.00009   0.00000   0.00751   0.00749   1.89020
    A7        1.89738   0.00141   0.00000   0.00970   0.00968   1.90706
    A8        1.94626   0.00012   0.00000   0.00007   0.00007   1.94633
    A9        1.95397   0.00033   0.00000   0.00162   0.00161   1.95558
   A10        1.88879  -0.00071   0.00000  -0.00360  -0.00361   1.88518
   A11        1.87623  -0.00076   0.00000  -0.00344  -0.00346   1.87277
   A12        1.89882  -0.00046   0.00000  -0.00463  -0.00463   1.89419
   A13        1.96870  -0.00103   0.00000  -0.00599  -0.00614   1.96256
   A14        1.93657  -0.00072   0.00000  -0.00739  -0.00746   1.92912
   A15        1.96181   0.00190   0.00000   0.01223   0.01221   1.97402
   A16        1.88151  -0.00019   0.00000  -0.01130  -0.01139   1.87012
   A17        1.87235   0.00030   0.00000   0.01031   0.01030   1.88265
   A18        1.83593  -0.00025   0.00000   0.00232   0.00236   1.83829
   A19        1.90274   0.00112   0.00000   0.00794   0.00793   1.91067
   A20        1.95952   0.00029   0.00000   0.00143   0.00143   1.96094
   A21        1.93680   0.00024   0.00000   0.00078   0.00077   1.93758
   A22        1.88600  -0.00061   0.00000  -0.00248  -0.00250   1.88350
   A23        1.88682  -0.00061   0.00000  -0.00306  -0.00307   1.88375
   A24        1.88996  -0.00050   0.00000  -0.00494  -0.00494   1.88502
   A25        1.82481   0.00076   0.00000   0.00701   0.00701   1.83182
   A26        1.85406   0.00033   0.00000   0.00400   0.00399   1.85805
   A27        1.80343  -0.00096   0.00000  -0.00200  -0.00200   1.80142
   A28        3.15016  -0.00049   0.00000  -0.10597  -0.10597   3.04419
   A29        3.17372  -0.00094   0.00000  -0.20273  -0.20273   2.97098
    D1       -0.99601   0.00076   0.00000   0.00890   0.00886  -0.98716
    D2        1.08496   0.00086   0.00000   0.01072   0.01067   1.09564
    D3       -3.06615   0.00059   0.00000   0.00593   0.00588  -3.06027
    D4        1.12044  -0.00085   0.00000  -0.01734  -0.01730   1.10314
    D5       -3.08177  -0.00074   0.00000  -0.01553  -0.01548  -3.09725
    D6       -0.94970  -0.00102   0.00000  -0.02031  -0.02028  -0.96998
    D7       -3.02297   0.00008   0.00000  -0.00029  -0.00028  -3.02325
    D8       -0.94199   0.00018   0.00000   0.00152   0.00153  -0.94046
    D9        1.19008  -0.00009   0.00000  -0.00327  -0.00326   1.18682
   D10       -3.12933  -0.00032   0.00000  -0.02112  -0.02114   3.13272
   D11       -1.19213  -0.00005   0.00000  -0.01502  -0.01504  -1.20717
   D12        1.04724  -0.00033   0.00000  -0.02153  -0.02156   1.02568
   D13        2.98444  -0.00006   0.00000  -0.01542  -0.01546   2.96898
   D14       -0.94804   0.00003   0.00000  -0.01191  -0.01186  -0.95990
   D15        0.98915   0.00030   0.00000  -0.00581  -0.00575   0.98340
   D16       -1.04438   0.00078   0.00000   0.00927   0.00923  -1.03515
   D17        1.04485   0.00096   0.00000   0.01238   0.01234   1.05718
   D18       -3.12059   0.00069   0.00000   0.00757   0.00753  -3.11306
   D19        1.06874  -0.00070   0.00000  -0.01485  -0.01481   1.05393
   D20       -3.12521  -0.00052   0.00000  -0.01175  -0.01170  -3.13692
   D21       -1.00746  -0.00080   0.00000  -0.01655  -0.01651  -1.02397
   D22        3.11911  -0.00026   0.00000  -0.00894  -0.00894   3.11017
   D23       -1.07484  -0.00008   0.00000  -0.00583  -0.00583  -1.08067
   D24        1.04291  -0.00036   0.00000  -0.01063  -0.01064   1.03227
   D25       -2.66329   0.00038   0.00000   0.01621   0.01624  -2.64704
   D26        1.70439  -0.00020   0.00000   0.00786   0.00789   1.71227
   D27        1.44607   0.00021   0.00000   0.00835   0.00830   1.45437
   D28       -0.46944  -0.00037   0.00000   0.00000  -0.00006  -0.46950
   D29       -0.55403   0.00041   0.00000   0.01557   0.01559  -0.53844
   D30       -2.46954  -0.00017   0.00000   0.00721   0.00723  -2.46231
         Item               Value     Threshold  Converged?
 Maximum Force            0.011652     0.000450     NO 
 RMS     Force            0.002503     0.000300     NO 
 Maximum Displacement     0.365463     0.001800     NO 
 RMS     Displacement     0.070652     0.001200     NO 
 Predicted change in Energy=-1.242586D-03
 GradGradGradGradGradGradGradGradGradGradGradGradGradGradGradGradGradGrad

                          Input orientation:                          
 ---------------------------------------------------------------------
 Center     Atomic      Atomic             Coordinates (Angstroms)
 Number     Number       Type             X           Y           Z
 ---------------------------------------------------------------------
      1         79           0       -0.862897   -0.000004   -0.220861
      2         17           0       -3.048070    0.033546    0.468224
      3          6           0        2.021149   -1.554527    0.264747
      4          6           0        3.529304   -1.777501    0.164754
      5          1           0        1.475582   -2.344564   -0.259939
      6          1           0        1.675992   -1.554624    1.302721
      7          1           0        3.775202   -2.769911    0.560032
      8          1           0        3.873952   -1.731628   -0.873092
      9          1           0        4.092521   -1.045057    0.750873
     10          6           0        2.112695    1.331730    0.544258
     11          6           0        3.407933    1.939643    0.004844
     12          1           0        2.233086    0.916118    1.550025
     13          1           0        1.328234    2.089704    0.600742
     14          1           0        3.742479    2.740605    0.674692
     15          1           0        4.213690    1.203928   -0.068524
     16          1           0        3.254240    2.373114   -0.988197
     17         16           0        1.427095   -0.002706   -0.544197
 ---------------------------------------------------------------------
                    Distance matrix (angstroms):
                    1          2          3          4          5
     1  Au   0.000000
     2  Cl   2.291494   0.000000
     3  C    3.312111   5.316048   0.000000
     4  C    4.753906   6.828897   1.527825   0.000000
     5  H    3.311641   5.162272   1.094119   2.172487   0.000000
     6  H    3.344264   5.053260   1.093857   2.186186   1.762406
     7  H    5.458401   7.377320   2.154311   1.096170   2.478211
     8  H    5.085437   7.268381   2.181495   1.094536   2.550260
     9  H    5.156798   7.227124   2.187798   1.094177   3.091736
    10  C    3.348592   5.322082   2.901204   3.437750   3.816776
    11  C    4.696080   6.747437   3.768282   3.722562   4.707284
    12  H    3.682448   5.462585   2.793016   3.294653   3.805499
    13  H    3.137350   4.837084   3.724707   4.471026   4.519426
    14  H    5.433455   7.313162   4.645340   4.551786   5.645467
    15  H    5.219616   7.375029   3.539404   3.067853   4.486165
    16  H    4.813658   6.878506   4.303109   4.316546   5.094161
    17  S    2.312707   4.588399   1.848091   2.841091   2.359545
                    6          7          8          9         10
     6  H    0.000000
     7  H    2.536768   0.000000
     8  H    3.097825   1.772463   0.000000
     9  H    2.530575   1.764152   1.776630   0.000000
    10  C    3.016125   4.425793   3.807240   3.100245   0.000000
    11  C    4.110232   4.756367   3.803443   3.151771   1.529108
    12  H    2.544814   4.116433   3.946453   2.818217   1.094895
    13  H    3.727578   5.441063   4.822390   4.182170   1.092288
    14  H    4.807679   5.511806   4.734320   3.802574   2.158272
    15  H    3.991220   4.047067   3.062718   2.396670   2.192263
    16  H    4.813138   5.396214   4.152855   3.925682   2.176241
    17  S    2.425182   3.793463   3.014043   3.141369   1.853510
                   11         12         13         14         15
    11  C    0.000000
    12  H    2.194415   0.000000
    13  H    2.168585   1.759886   0.000000
    14  H    1.096429   2.524525   2.501543   0.000000
    15  H    1.093574   2.573971   3.091662   1.770815   0.000000
    16  H    1.094372   3.099704   2.512876   1.771617   1.770125
    17  S    2.828054   2.424794   2.387224   3.791101   3.073653
                   16         17
    16  H    0.000000
    17  S    3.029870   0.000000
 Stoichiometry    C4H10AuClS
 Framework group  C1[X(C4H10AuClS)]
 Deg. of freedom    45
 Full point group                 C1      NOp   1
 Largest Abelian subgroup         C1      NOp   1
 Largest concise Abelian subgroup C1      NOp   1
                         Standard orientation:                         
 ---------------------------------------------------------------------
 Center     Atomic      Atomic             Coordinates (Angstroms)
 Number     Number       Type             X           Y           Z
 ---------------------------------------------------------------------
      1         79           0       -0.855283   -0.003595   -0.160521
      2         17           0       -3.042017    0.025707    0.523791
      3          6           0        2.032603   -1.547118    0.337203
      4          6           0        3.541663   -1.765710    0.241272
      5          1           0        1.490648   -2.340889   -0.185586
      6          1           0        1.685233   -1.544305    1.374435
      7          1           0        3.789842   -2.755808    0.640899
      8          1           0        3.888379   -1.722749   -0.796009
      9          1           0        4.101317   -1.029238    0.825754
     10          6           0        2.114457    1.340469    0.605766
     11          6           0        3.408923    1.950388    0.066759
     12          1           0        2.234011    0.929118    1.613382
     13          1           0        1.327494    2.096174    0.657658
     14          1           0        3.739513    2.754978    0.734219
     15          1           0        4.217149    1.216945   -0.002058
     16          1           0        3.255984    2.379542   -0.928272
     17         16           0        1.435390   -0.000309   -0.478983
 ---------------------------------------------------------------------
 Rotational constants (GHZ):      2.4124074      0.4808737      0.4254808
 Basis read from rwf:  (5D, 7F)
 Pseudo-potential data read from rwf file.
 There are   166 symmetry adapted cartesian basis functions of A   symmetry.
 There are   154 symmetry adapted basis functions of A   symmetry.
   154 basis functions,   304 primitive gaussians,   166 cartesian basis functions
    43 alpha electrons       43 beta electrons
       nuclear repulsion energy       547.6743699837 Hartrees.
 NAtoms=   17 NActive=   17 NUniq=   17 SFac= 1.00D+00 NAtFMM=   60 NAOKFM=F Big=F
 Integral buffers will be    131072 words long.
 Raffenetti 2 integral format.
 Two-electron integral symmetry is turned on.
 One-electron integrals computed using PRISM.
   1 Symmetry operations used in ECPInt.
 ECPInt:  NShTT=    1830 NPrTT=    8946 LenC2=    1756 LenP2D=    6126.
 LDataN:  DoStor=T MaxTD1= 7 Len=  274
 NBasis=   154 RedAO= T EigKep=  3.89D-03  NBF=   154
 NBsUse=   154 1.00D-06 EigRej= -1.00D+00 NBFU=   154
 Defaulting to unpruned grid for atomic number  79.
 Initial guess from the checkpoint file:  "/home/scr/guest2/Gau-3255.chk"
 B after Tr=     0.000000    0.000000    0.000000
         Rot=    0.999997    0.002217   -0.000602   -0.000893 Ang=   0.28 deg.
 ExpMin= 2.79D-02 ExpMax= 2.52D+04 ExpMxC= 3.78D+03 IAcc=3 IRadAn=         5 AccDes= 0.00D+00
 Harris functional with IExCor=  402 and IRadAn=       5 diagonalized for initial guess.
 HarFok:  IExCor=  402 AccDes= 0.00D+00 IRadAn=         5 IDoV= 1 UseB2=F ITyADJ=14
 ICtDFT=  3500011 ScaDFX=  1.000000  1.000000  1.000000  1.000000
 Defaulting to unpruned grid for atomic number  79.
 Defaulting to unpruned grid for atomic number  79.
 Defaulting to unpruned grid for atomic number  79.
 Defaulting to unpruned grid for atomic number  79.
 Defaulting to unpruned grid for atomic number  79.
 Defaulting to unpruned grid for atomic number  79.
 Defaulting to unpruned grid for atomic number  79.
 Defaulting to unpruned grid for atomic number  79.
 FoFCou: FMM=F IPFlag=           0 FMFlag=      100000 FMFlg1=           0
         NFxFlg=           0 DoJE=T BraDBF=F KetDBF=T FulRan=T
         wScrn=  0.000000 ICntrl=     500 IOpCl=  0 I1Cent=   200000004 NGrid=           0
         NMat0=    1 NMatS0=      1 NMatT0=    0 NMatD0=    1 NMtDS0=    0 NMtDT0=    0
 Petite list used in FoFCou.
 Keep R1 ints in memory in canonical form, NReq=73660518.
 Requested convergence on RMS density matrix=1.00D-08 within 128 cycles.
 Requested convergence on MAX density matrix=1.00D-06.
 Requested convergence on             energy=1.00D-06.
 No special actions if energy rises.
 Defaulting to unpruned grid for atomic number  79.
 Defaulting to unpruned grid for atomic number  79.
 Defaulting to unpruned grid for atomic number  79.
 Defaulting to unpruned grid for atomic number  79.
 Defaulting to unpruned grid for atomic number  79.
 Defaulting to unpruned grid for atomic number  79.
 Defaulting to unpruned grid for atomic number  79.
 Defaulting to unpruned grid for atomic number  79.
 SCF Done:  E(RB3LYP) =  -1152.37557244     A.U. after   11 cycles
            NFock= 11  Conv=0.34D-08     -V/T= 2.0899
   1 Symmetry operations used in ECPInt.
 ECPInt:  NShTT=    1830 NPrTT=    8946 LenC2=    1756 LenP2D=    6126.
 LDataN:  DoStor=T MaxTD1= 8 Len=  415
 Calling FoFJK, ICntrl=      2127 FMM=F ISym2X=0 I1Cent= 0 IOpClX= 0 NMat=1 NMatS=1 NMatT=0.
 Defaulting to unpruned grid for atomic number  79.
 Defaulting to unpruned grid for atomic number  79.
 Defaulting to unpruned grid for atomic number  79.
 Defaulting to unpruned grid for atomic number  79.
 Defaulting to unpruned grid for atomic number  79.
 Defaulting to unpruned grid for atomic number  79.
 Defaulting to unpruned grid for atomic number  79.
 Defaulting to unpruned grid for atomic number  79.
 ***** Axes restored to original set *****
 -------------------------------------------------------------------
 Center     Atomic                   Forces (Hartrees/Bohr)
 Number     Number              X              Y              Z
 -------------------------------------------------------------------
      1       79          -0.003676239    0.000624250    0.009892892
      2       17           0.000128275   -0.000203304   -0.004164728
      3        6           0.000328108   -0.002695367    0.001848315
      4        6          -0.000081479    0.001126088   -0.000515031
      5        1          -0.000258429    0.000419398   -0.000337860
      6        1          -0.000255679    0.000587852   -0.000040371
      7        1          -0.000680158    0.000022728    0.000082773
      8        1          -0.000060189    0.000065272   -0.000032731
      9        1           0.000036272    0.000480798   -0.000070562
     10        6           0.000064527    0.002389547    0.002692770
     11        6          -0.000308584   -0.000929288   -0.000839899
     12        1          -0.000049561   -0.000611101   -0.000423343
     13        1          -0.000514725   -0.000258861   -0.000239544
     14        1          -0.000586368   -0.000228835    0.000286351
     15        1           0.000068807   -0.000441828    0.000079013
     16        1          -0.000037453   -0.000073333   -0.000081374
     17       16           0.005882875   -0.000274015   -0.008136672
 -------------------------------------------------------------------
 Cartesian Forces:  Max     0.009892892 RMS     0.002258541

 GradGradGradGradGradGradGradGradGradGradGradGradGradGradGradGradGradGrad
 Berny optimization.
 Using GEDIIS/GDIIS optimizer.
 FormGI is forming the generalized inverse of G from B-inverse, IUseBI=4.
 Internal  Forces:  Max     0.011117849 RMS     0.001935578
 Search for a local minimum.
 Step number   2 out of a maximum of   85
 All quantities printed in internal units (Hartrees-Bohrs-Radians)
 Mixed Optimization -- RFO/linear search
 Update second derivatives using D2CorX and points    2    1
 DE=  5.78D-04 DEPred=-1.24D-03 R=-4.65D-01
 Trust test=-4.65D-01 RLast= 2.56D-01 DXMaxT set to 1.50D-01
 ITU= -1  0
 Use linear search instead of GDIIS.
 Energy rises -- skip Quadratic/GDIIS search.
 Quartic linear search produced a step of -0.60664.
 Iteration  1 RMS(Cart)=  0.04221460 RMS(Int)=  0.00220482
 Iteration  2 RMS(Cart)=  0.00352910 RMS(Int)=  0.00001291
 Iteration  3 RMS(Cart)=  0.00001294 RMS(Int)=  0.00000945
 Iteration  4 RMS(Cart)=  0.00000000 RMS(Int)=  0.00000945
 Variable       Old X    -DE/DX   Delta X   Delta X   Delta X     New X
                                 (Linear)    (Quad)   (Total)
    R1        4.33030  -0.00138   0.01508   0.00000   0.01508   4.34537
    R2        4.37038   0.00450  -0.02502   0.00000  -0.02502   4.34537
    R3        2.88717  -0.00099  -0.01128   0.00000  -0.01128   2.87589
    R4        2.06759  -0.00001  -0.00059   0.00000  -0.00059   2.06699
    R5        2.06709   0.00004  -0.00152   0.00000  -0.00152   2.06557
    R6        3.49239   0.00008  -0.02872   0.00000  -0.02872   3.46367
    R7        2.07146  -0.00014  -0.00154   0.00000  -0.00154   2.06992
    R8        2.06837   0.00002  -0.00080   0.00000  -0.00080   2.06757
    R9        2.06769   0.00030  -0.00129   0.00000  -0.00129   2.06640
   R10        2.88959  -0.00120  -0.01100   0.00000  -0.01100   2.87859
   R11        2.06905  -0.00016  -0.00160   0.00000  -0.00160   2.06745
   R12        2.06413  -0.00005  -0.00076   0.00000  -0.00076   2.06336
   R13        3.50263   0.00015  -0.02862   0.00000  -0.02862   3.47401
   R14        2.07195  -0.00017  -0.00160   0.00000  -0.00160   2.07035
   R15        2.06656   0.00034  -0.00102   0.00000  -0.00102   2.06553
   R16        2.06806   0.00005  -0.00076   0.00000  -0.00076   2.06731
    A1        1.93419   0.00084   0.00508   0.00000   0.00511   1.93930
    A2        1.95365   0.00085   0.00311   0.00000   0.00314   1.95680
    A3        1.99457  -0.00213  -0.00867   0.00000  -0.00866   1.98591
    A4        1.87302  -0.00019   0.00796   0.00000   0.00799   1.88101
    A5        1.80918   0.00040  -0.00267   0.00000  -0.00268   1.80649
    A6        1.89020   0.00027  -0.00455   0.00000  -0.00454   1.88566
    A7        1.90706  -0.00089  -0.00588   0.00000  -0.00587   1.90119
    A8        1.94633   0.00004  -0.00004   0.00000  -0.00004   1.94629
    A9        1.95558  -0.00005  -0.00098   0.00000  -0.00097   1.95461
   A10        1.88518   0.00041   0.00219   0.00000   0.00219   1.88737
   A11        1.87277   0.00053   0.00210   0.00000   0.00210   1.87487
   A12        1.89419   0.00000   0.00281   0.00000   0.00281   1.89700
   A13        1.96256   0.00049   0.00372   0.00000   0.00376   1.96632
   A14        1.92912   0.00096   0.00452   0.00000   0.00454   1.93365
   A15        1.97402  -0.00171  -0.00741   0.00000  -0.00740   1.96662
   A16        1.87012  -0.00008   0.00691   0.00000   0.00693   1.87705
   A17        1.88265   0.00022  -0.00625   0.00000  -0.00625   1.87640
   A18        1.83829   0.00016  -0.00143   0.00000  -0.00144   1.83685
   A19        1.91067  -0.00091  -0.00481   0.00000  -0.00481   1.90586
   A20        1.96094  -0.00027  -0.00086   0.00000  -0.00086   1.96008
   A21        1.93758   0.00017  -0.00047   0.00000  -0.00047   1.93711
   A22        1.88350   0.00052   0.00151   0.00000   0.00152   1.88502
   A23        1.88375   0.00039   0.00186   0.00000   0.00187   1.88561
   A24        1.88502   0.00014   0.00300   0.00000   0.00300   1.88801
   A25        1.83182  -0.00021  -0.00425   0.00000  -0.00425   1.82757
   A26        1.85805  -0.00097  -0.00242   0.00000  -0.00242   1.85563
   A27        1.80142  -0.00176   0.00121   0.00000   0.00121   1.80264
   A28        3.04419   0.01024   0.06428   0.00000   0.06428   3.10847
   A29        2.97098   0.01112   0.12298   0.00000   0.12298   3.09397
    D1       -0.98716  -0.00043  -0.00537   0.00000  -0.00536  -0.99252
    D2        1.09564  -0.00048  -0.00647   0.00000  -0.00646   1.08917
    D3       -3.06027  -0.00048  -0.00357   0.00000  -0.00355  -3.06383
    D4        1.10314   0.00047   0.01049   0.00000   0.01048   1.11362
    D5       -3.09725   0.00043   0.00939   0.00000   0.00938  -3.08787
    D6       -0.96998   0.00043   0.01230   0.00000   0.01229  -0.95768
    D7       -3.02325  -0.00014   0.00017   0.00000   0.00017  -3.02308
    D8       -0.94046  -0.00018  -0.00093   0.00000  -0.00093  -0.94139
    D9        1.18682  -0.00019   0.00198   0.00000   0.00198   1.18880
   D10        3.13272   0.00107   0.01283   0.00000   0.01283  -3.13764
   D11       -1.20717  -0.00074   0.00912   0.00000   0.00913  -1.19804
   D12        1.02568   0.00094   0.01308   0.00000   0.01309   1.03877
   D13        2.96898  -0.00086   0.00938   0.00000   0.00939   2.97836
   D14       -0.95990   0.00086   0.00719   0.00000   0.00718  -0.95272
   D15        0.98340  -0.00095   0.00349   0.00000   0.00348   0.98688
   D16       -1.03515  -0.00048  -0.00560   0.00000  -0.00559  -1.04074
   D17        1.05718  -0.00061  -0.00748   0.00000  -0.00748   1.04971
   D18       -3.11306  -0.00049  -0.00457   0.00000  -0.00456  -3.11761
   D19        1.05393   0.00041   0.00899   0.00000   0.00898   1.06291
   D20       -3.13692   0.00028   0.00710   0.00000   0.00709  -3.12983
   D21       -1.02397   0.00039   0.01002   0.00000   0.01001  -1.01397
   D22        3.11017   0.00015   0.00542   0.00000   0.00542   3.11560
   D23       -1.08067   0.00003   0.00354   0.00000   0.00353  -1.07714
   D24        1.03227   0.00014   0.00645   0.00000   0.00645   1.03872
   D25       -2.64704  -0.00105  -0.00985   0.00000  -0.00986  -2.65690
   D26        1.71227   0.00024  -0.00479   0.00000  -0.00479   1.70748
   D27        1.45437  -0.00067  -0.00503   0.00000  -0.00502   1.44934
   D28       -0.46950   0.00063   0.00003   0.00000   0.00005  -0.46945
   D29       -0.53844  -0.00075  -0.00946   0.00000  -0.00946  -0.54790
   D30       -2.46231   0.00055  -0.00439   0.00000  -0.00439  -2.46670
         Item               Value     Threshold  Converged?
 Maximum Force            0.011118     0.000450     NO 
 RMS     Force            0.001936     0.000300     NO 
 Maximum Displacement     0.223257     0.001800     NO 
 RMS     Displacement     0.043303     0.001200     NO 
 Predicted change in Energy=-4.114623D-04
 GradGradGradGradGradGradGradGradGradGradGradGradGradGradGradGradGradGrad

                          Input orientation:                          
 ---------------------------------------------------------------------
 Center     Atomic      Atomic             Coordinates (Angstroms)
 Number     Number       Type             X           Y           Z
 ---------------------------------------------------------------------
      1         79           0       -0.846325   -0.000268   -0.133317
      2         17           0       -3.094249    0.026851    0.350081
      3          6           0        2.023651   -1.543136    0.279689
      4          6           0        3.526352   -1.749795    0.156289
      5          1           0        1.473393   -2.329516   -0.244935
      6          1           0        1.692545   -1.542295    1.321385
      7          1           0        3.781397   -2.742616    0.542369
      8          1           0        3.854662   -1.694965   -0.885961
      9          1           0        4.089797   -1.016772    0.740185
     10          6           0        2.123192    1.320239    0.560268
     11          6           0        3.406966    1.913819   -0.005409
     12          1           0        2.259045    0.897602    1.560198
     13          1           0        1.341667    2.079800    0.627310
     14          1           0        3.759286    2.710057    0.659550
     15          1           0        4.203603    1.170727   -0.094312
     16          1           0        3.234843    2.349500   -0.994009
     17         16           0        1.422365   -0.001363   -0.508283
 ---------------------------------------------------------------------
                    Distance matrix (angstroms):
                    1          2          3          4          5
     1  Au   0.000000
     2  Cl   2.299472   0.000000
     3  C    3.284475   5.353757   0.000000
     4  C    4.718582   6.857579   1.521856   0.000000
     5  H    3.289217   5.173961   1.093804   2.170644   0.000000
     6  H    3.307547   5.130210   1.093053   2.182510   1.766664
     7  H    5.421516   7.414947   2.144161   1.095353   2.473334
     8  H    5.053489   7.264972   2.175866   1.094111   2.546372
     9  H    5.114839   7.269928   2.181301   1.093493   3.088580
    10  C    3.323076   5.379473   2.878810   3.399583   3.793588
    11  C    4.665894   6.778851   3.734351   3.669123   4.669258
    12  H    3.649313   5.557009   2.766281   3.253573   3.780217
    13  H    3.113285   4.895795   3.702919   4.434017   4.496692
    14  H    5.402421   7.366567   4.609378   4.494197   5.607200
    15  H    5.184064   7.400310   3.501016   3.008475   4.441670
    16  H    4.787289   6.874496   4.271054   4.267597   5.055394
    17  S    2.299468   4.597542   1.832895   2.815214   2.343555
                    6          7          8          9         10
     6  H    0.000000
     7  H    2.531983   0.000000
     8  H    3.093612   1.772869   0.000000
     9  H    2.522059   1.764306   1.777522   0.000000
    10  C    2.993135   4.388252   3.765770   3.059661   0.000000
    11  C    4.079748   4.703471   3.741541   3.100086   1.523287
    12  H    2.516157   4.074888   3.905264   2.772887   1.094046
    13  H    3.704649   5.405108   4.780585   4.141705   1.091883
    14  H    4.774090   5.453976   4.669253   3.742325   2.149012
    15  H    3.958547   3.987213   2.993436   2.344033   2.186078
    16  H    4.783910   5.346851   4.093110   3.882031   2.170466
    17  S    2.407312   3.766081   2.987808   3.115272   1.838367
                   11         12         13         14         15
    11  C    0.000000
    12  H    2.191242   0.000000
    13  H    2.166412   1.763365   0.000000
    14  H    1.095580   2.519302   2.498629   0.000000
    15  H    1.093033   2.567743   3.088338   1.770667   0.000000
    16  H    1.093972   3.095830   2.507096   1.771807   1.771287
    17  S    2.803470   2.405574   2.372199   3.765214   3.046384
                   16         17
    16  H    0.000000
    17  S    3.007917   0.000000
 Stoichiometry    C4H10AuClS
 Framework group  C1[X(C4H10AuClS)]
 Deg. of freedom    45
 Full point group                 C1      NOp   1
 Largest Abelian subgroup         C1      NOp   1
 Largest concise Abelian subgroup C1      NOp   1
                         Standard orientation:                         
 ---------------------------------------------------------------------
 Center     Atomic      Atomic             Coordinates (Angstroms)
 Number     Number       Type             X           Y           Z
 ---------------------------------------------------------------------
      1         79           0       -0.842554   -0.001632   -0.110015
      2         17           0       -3.091053    0.022206    0.370878
      3          6           0        2.029820   -1.538415    0.308955
      4          6           0        3.533035   -1.742515    0.187576
      5          1           0        1.481594   -2.326776   -0.214824
      6          1           0        1.697573   -1.536278    1.350286
      7          1           0        3.789496   -2.734151    0.575756
      8          1           0        3.862385   -1.688988   -0.854414
      9          1           0        4.094482   -1.007379    0.770740
     10          6           0        2.123751    1.325649    0.584385
     11          6           0        3.407042    1.920569    0.019021
     12          1           0        2.259292    0.905098    1.585237
     13          1           0        1.340748    2.083881    0.649179
     14          1           0        3.757159    2.718677    0.682901
     15          1           0        4.205151    1.178794   -0.067648
     16          1           0        3.235195    2.354116   -0.970565
     17         16           0        1.426543    0.000792   -0.482502
 ---------------------------------------------------------------------
 Rotational constants (GHZ):      2.5635845      0.4824477      0.4251841
 Basis read from rwf:  (5D, 7F)
 Pseudo-potential data read from rwf file.
 There are   166 symmetry adapted cartesian basis functions of A   symmetry.
 There are   154 symmetry adapted basis functions of A   symmetry.
   154 basis functions,   304 primitive gaussians,   166 cartesian basis functions
    43 alpha electrons       43 beta electrons
       nuclear repulsion energy       549.6557389888 Hartrees.
 NAtoms=   17 NActive=   17 NUniq=   17 SFac= 1.00D+00 NAtFMM=   60 NAOKFM=F Big=F
 Integral buffers will be    131072 words long.
 Raffenetti 2 integral format.
 Two-electron integral symmetry is turned on.
 One-electron integrals computed using PRISM.
   1 Symmetry operations used in ECPInt.
 ECPInt:  NShTT=    1830 NPrTT=    8946 LenC2=    1757 LenP2D=    6144.
 LDataN:  DoStor=T MaxTD1= 7 Len=  274
 NBasis=   154 RedAO= T EigKep=  3.68D-03  NBF=   154
 NBsUse=   154 1.00D-06 EigRej= -1.00D+00 NBFU=   154
 Defaulting to unpruned grid for atomic number  79.
 Lowest energy guess from the checkpoint file:  "/home/scr/guest2/Gau-3255.chk"
 B after Tr=     0.000000    0.000000    0.000000
         Rot=    0.999999    0.001220   -0.000076   -0.000520 Ang=   0.15 deg.
 B after Tr=     0.000000    0.000000    0.000000
         Rot=    0.999999   -0.000851    0.000545    0.000363 Ang=  -0.12 deg.
 Keep R1 ints in memory in canonical form, NReq=73660518.
 Requested convergence on RMS density matrix=1.00D-08 within 128 cycles.
 Requested convergence on MAX density matrix=1.00D-06.
 Requested convergence on             energy=1.00D-06.
 No special actions if energy rises.
 Defaulting to unpruned grid for atomic number  79.
 Defaulting to unpruned grid for atomic number  79.
 Defaulting to unpruned grid for atomic number  79.
 Defaulting to unpruned grid for atomic number  79.
 Defaulting to unpruned grid for atomic number  79.
 Defaulting to unpruned grid for atomic number  79.
 Defaulting to unpruned grid for atomic number  79.
 Defaulting to unpruned grid for atomic number  79.
 SCF Done:  E(RB3LYP) =  -1152.37661316     A.U. after    9 cycles
            NFock=  9  Conv=0.34D-08     -V/T= 2.0898
   1 Symmetry operations used in ECPInt.
 ECPInt:  NShTT=    1830 NPrTT=    8946 LenC2=    1757 LenP2D=    6144.
 LDataN:  DoStor=T MaxTD1= 8 Len=  415
 Calling FoFJK, ICntrl=      2127 FMM=F ISym2X=0 I1Cent= 0 IOpClX= 0 NMat=1 NMatS=1 NMatT=0.
 Defaulting to unpruned grid for atomic number  79.
 Defaulting to unpruned grid for atomic number  79.
 Defaulting to unpruned grid for atomic number  79.
 Defaulting to unpruned grid for atomic number  79.
 Defaulting to unpruned grid for atomic number  79.
 Defaulting to unpruned grid for atomic number  79.
 Defaulting to unpruned grid for atomic number  79.
 Defaulting to unpruned grid for atomic number  79.
 ***** Axes restored to original set *****
 -------------------------------------------------------------------
 Center     Atomic                   Forces (Hartrees/Bohr)
 Number     Number              X              Y              Z
 -------------------------------------------------------------------
      1       79          -0.009964286    0.000627338    0.004980805
      2       17           0.003454276   -0.000220165   -0.002276863
      3        6           0.000084600   -0.003411948    0.002328054
      4        6           0.001733713   -0.001097560    0.000102246
      5        1          -0.000105547   -0.000458987    0.000386250
      6        1          -0.000266817   -0.000696663    0.000485124
      7        1           0.000471101   -0.000358095    0.000099282
      8        1           0.000257569    0.000036371   -0.000216329
      9        1           0.000485046    0.000438299    0.000056463
     10        6           0.000114135    0.002495130    0.003848588
     11        6           0.001544318    0.001167803   -0.000207517
     12        1           0.000108175    0.000429583    0.000703549
     13        1          -0.000151417    0.000291891    0.000506272
     14        1           0.000310220    0.000428489    0.000114420
     15        1           0.000421939   -0.000267714   -0.000165080
     16        1           0.000195593    0.000040054   -0.000326413
     17       16           0.001307382    0.000556175   -0.010418852
 -------------------------------------------------------------------
 Cartesian Forces:  Max     0.010418852 RMS     0.002434216

 GradGradGradGradGradGradGradGradGradGradGradGradGradGradGradGradGradGrad
 Berny optimization.
 Using GEDIIS/GDIIS optimizer.
 FormGI is forming the generalized inverse of G from B-inverse, IUseBI=4.
 Internal  Forces:  Max     0.006927918 RMS     0.001682712
 Search for a local minimum.
 Step number   3 out of a maximum of   85
 All quantities printed in internal units (Hartrees-Bohrs-Radians)
 Mixed Optimization -- RFO/linear search
 Update second derivatives using D2CorX and points    2    1    3
 ITU=  0 -1  0
 Use linear search instead of GDIIS.
     Eigenvalues ---    0.00220   0.00230   0.00230   0.00505   0.00526
     Eigenvalues ---    0.00973   0.03960   0.04086   0.05215   0.05335
     Eigenvalues ---    0.05470   0.05488   0.05801   0.05843   0.06110
     Eigenvalues ---    0.09507   0.09695   0.12302   0.12910   0.12947
     Eigenvalues ---    0.14116   0.16000   0.16000   0.16000   0.16000
     Eigenvalues ---    0.16013   0.16167   0.20695   0.21970   0.22249
     Eigenvalues ---    0.23288   0.24205   0.25097   0.30232   0.30495
     Eigenvalues ---    0.34229   0.34256   0.34368   0.34384   0.34398
     Eigenvalues ---    0.34406   0.34458   0.34501   0.34518   0.34624
 RFO step:  Lambda=-7.88252847D-03 EMin= 2.20064320D-03
 Quartic linear search produced a step of  0.00534.
 Maximum step size (   0.150) exceeded in Quadratic search.
    -- Step size scaled by   0.239
 Iteration  1 RMS(Cart)=  0.05051254 RMS(Int)=  0.00205955
 Iteration  2 RMS(Cart)=  0.00258392 RMS(Int)=  0.00002903
 Iteration  3 RMS(Cart)=  0.00000785 RMS(Int)=  0.00002867
 Iteration  4 RMS(Cart)=  0.00000000 RMS(Int)=  0.00002867
 Variable       Old X    -DE/DX   Delta X   Delta X   Delta X     New X
                                 (Linear)    (Quad)   (Total)
    R1        4.34537  -0.00385  -0.00005  -0.02559  -0.02564   4.31973
    R2        4.34537   0.00689   0.00009   0.04284   0.04293   4.38829
    R3        2.87589   0.00303   0.00004   0.01823   0.01827   2.89416
    R4        2.06699   0.00020   0.00000   0.00098   0.00098   2.06797
    R5        2.06557   0.00055   0.00001   0.00253   0.00254   2.06811
    R6        3.46367   0.00693   0.00010   0.04698   0.04708   3.51075
    R7        2.06992   0.00047   0.00001   0.00250   0.00251   2.07243
    R8        2.06757   0.00029   0.00000   0.00134   0.00134   2.06891
    R9        2.06640   0.00057   0.00000   0.00224   0.00224   2.06865
   R10        2.87859   0.00284   0.00004   0.01768   0.01772   2.89631
   R11        2.06745   0.00049   0.00001   0.00260   0.00261   2.07005
   R12        2.06336   0.00032   0.00000   0.00131   0.00131   2.06467
   R13        3.47401   0.00684   0.00010   0.04684   0.04694   3.52095
   R14        2.07035   0.00048   0.00001   0.00259   0.00260   2.07294
   R15        2.06553   0.00050   0.00000   0.00182   0.00182   2.06735
   R16        2.06731   0.00029   0.00000   0.00127   0.00127   2.06858
    A1        1.93930  -0.00023  -0.00002  -0.00707  -0.00715   1.93215
    A2        1.95680  -0.00018  -0.00001  -0.00459  -0.00470   1.95209
    A3        1.98591   0.00042   0.00003   0.01223   0.01224   1.99815
    A4        1.88101  -0.00023  -0.00003  -0.01089  -0.01099   1.87002
    A5        1.80649   0.00012   0.00001   0.00395   0.00399   1.81048
    A6        1.88566   0.00009   0.00002   0.00609   0.00610   1.89176
    A7        1.90119   0.00051   0.00002   0.00880   0.00880   1.90999
    A8        1.94629   0.00006   0.00000   0.00010   0.00010   1.94639
    A9        1.95461   0.00018   0.00000   0.00162   0.00161   1.95622
   A10        1.88737  -0.00026  -0.00001  -0.00338  -0.00340   1.88398
   A11        1.87487  -0.00024  -0.00001  -0.00310  -0.00313   1.87175
   A12        1.89700  -0.00027  -0.00001  -0.00434  -0.00434   1.89266
   A13        1.96632  -0.00041  -0.00001  -0.00598  -0.00609   1.96023
   A14        1.93365  -0.00003  -0.00002  -0.00585  -0.00591   1.92774
   A15        1.96662   0.00035   0.00003   0.01041   0.01043   1.97704
   A16        1.87705  -0.00017  -0.00002  -0.00933  -0.00942   1.86763
   A17        1.87640   0.00031   0.00002   0.00870   0.00873   1.88513
   A18        1.83685  -0.00003   0.00000   0.00205   0.00209   1.83893
   A19        1.90586   0.00033   0.00002   0.00701   0.00701   1.91287
   A20        1.96008   0.00006   0.00000   0.00125   0.00124   1.96132
   A21        1.93711   0.00020   0.00000   0.00097   0.00097   1.93808
   A22        1.88502  -0.00016  -0.00001  -0.00231  -0.00233   1.88269
   A23        1.88561  -0.00021  -0.00001  -0.00281  -0.00283   1.88279
   A24        1.88801  -0.00024  -0.00001  -0.00445  -0.00446   1.88356
   A25        1.82757   0.00053   0.00001   0.00568   0.00570   1.83327
   A26        1.85563  -0.00028   0.00001   0.00170   0.00172   1.85735
   A27        1.80264  -0.00128   0.00000  -0.00359  -0.00360   1.79904
   A28        3.10847   0.00382  -0.00022   0.08889   0.08867   3.19715
   A29        3.09397   0.00404  -0.00043   0.07755   0.07712   3.17109
    D1       -0.99252   0.00028   0.00002   0.00848   0.00847  -0.98405
    D2        1.08917   0.00032   0.00002   0.01002   0.01001   1.09918
    D3       -3.06383   0.00014   0.00001   0.00564   0.00561  -3.05821
    D4        1.11362  -0.00031  -0.00004  -0.01360  -0.01360   1.10002
    D5       -3.08787  -0.00027  -0.00003  -0.01206  -0.01206  -3.09993
    D6       -0.95768  -0.00045  -0.00004  -0.01644  -0.01646  -0.97414
    D7       -3.02308   0.00000   0.00000   0.00035   0.00035  -3.02273
    D8       -0.94139   0.00004   0.00000   0.00189   0.00190  -0.93949
    D9        1.18880  -0.00014  -0.00001  -0.00249  -0.00250   1.18630
   D10       -3.13764   0.00022  -0.00004  -0.00740  -0.00746   3.13809
   D11       -1.19804  -0.00037  -0.00003  -0.00487  -0.00491  -1.20295
   D12        1.03877   0.00019  -0.00005  -0.00799  -0.00806   1.03071
   D13        2.97836  -0.00040  -0.00003  -0.00546  -0.00552   2.97285
[...]
 ! D26   D(11,10,17,3)          97.4017         -DE/DX =    0.0                 !
 ! D27   D(12,10,17,1)          81.8448         -DE/DX =    0.0                 !
 ! D28   D(12,10,17,3)         -27.3373         -DE/DX =    0.0                 !
 ! D29   D(13,10,17,1)         -32.4664         -DE/DX =    0.0                 !
 ! D30   D(13,10,17,3)        -141.6485         -DE/DX =    0.0                 !
 --------------------------------------------------------------------------------
 GradGradGradGradGradGradGradGradGradGradGradGradGradGradGradGradGradGrad

 1\1\GINC-NEQC31\Freq\RB3LYP\Gen\C4H10Au1Cl1S1\GUEST2\18-May-2023\0\\#N
  Geom=AllCheck Guess=TCheck SCRF=Check GenChk RB3LYP/ChkBas Freq\\af\\
 0,1\Au,-0.8827225726,0.0024945785,-0.09140101\Cl,-3.1321632168,0.01197
 67154,0.2906871941\C,2.030159871,-1.54906609,0.2908760746\C,3.53251820
 32,-1.7668822393,0.1365672444\H,1.4627753247,-2.3406058732,-0.20729872
 88\H,1.719626994,-1.5283708916,1.3391930329\H,3.7951276141,-2.74996931
 8,0.5439693756\H,3.8353199945,-1.7424230528,-0.9149463503\H,4.11424015
 41,-1.0186230009,0.683479221\C,2.1236206132,1.3353343144,0.5665993749\
 C,3.415652665,1.9251301253,0.0052972096\H,2.253404011,0.9120505439,1.5
 673995142\H,1.3419963952,2.0956540272,0.6293711138\H,3.761834765,2.729
 5920167,0.6647511695\H,4.2138354697,1.1808564935,-0.0677138999\H,3.254
 6093586,2.3494452333,-0.9905457982\S,1.4123523562,0.0012734178,-0.5151
 857374\\Version=EM64L-G09RevD.01\State=1-A\HF=-1152.3774094\RMSD=1.330
 e-09\RMSF=5.252e-06\ZeroPoint=0.1368154\Thermal=0.1479723\Dipole=3.749
 4738,-0.0897716,0.2581645\DipoleDeriv=0.9474202,-0.0019967,-0.1122368,
 -0.0103413,-0.1452489,0.0032067,-0.0753992,-0.0070972,-0.0938694,-1.10
 03362,0.0048086,0.0769401,0.0049983,-0.298192,-0.0010815,0.1177654,0.0
 003748,-0.315946,0.0415238,-0.1754991,0.0142651,-0.3232077,0.2918554,-
 0.1155811,0.0810617,-0.079855,0.0590029,0.0375244,0.0135382,0.0060542,
 0.2011852,-0.0162303,0.023963,-0.0881436,0.085419,0.0815023,-0.0005124
 ,-0.0044627,-0.0319764,-0.0295853,-0.0220735,-0.0206882,-0.0506406,0.0
 038806,0.0543222,0.0049229,0.0628705,0.0273222,0.0684631,-0.0088305,0.
 0038951,0.0172978,0.0359931,-0.0522848,-0.0354377,0.0724833,-0.0129638
 ,0.0752127,-0.0790646,0.0608085,-0.0181129,0.062157,0.0654348,0.033241
 1,0.006889,0.011425,-0.0337071,0.0892236,0.0227455,0.0570357,-0.007649
 ,-0.081702,-0.0090197,-0.0382137,-0.0183823,-0.1032475,-0.0152627,-0.0
 766991,-0.0270709,-0.0901285,0.0163483,0.0803792,0.1973352,0.0315585,0
 .2851746,0.2549185,0.0913066,0.1315053,0.0806383,0.0754468,0.0288665,-
 0.0407831,0.0152064,-0.1227019,0.0258885,0.0065211,-0.1252643,-0.07785
 66,0.063924,0.003755,-0.0729761,-0.0177477,-0.0716827,-0.0262083,0.045
 1927,-0.0367828,0.0164725,-0.0682424,-0.0247395,-0.0020129,0.0099939,0
 .0291131,-0.0071469,-0.0123132,-0.0056045,-0.0244957,0.0698446,-0.0204
 141,-0.090516,-0.0187708,-0.099554,-0.046081,-0.0734984,-0.0112005,-0.
 0758046,0.0116627,-0.0324995,0.0646895,0.012946,0.1144355,-0.0216312,-
 0.0034872,0.0279811,0.011822,0.0566726,0.0408074,0.0182821,-0.0397619,
 0.0087143,0.0545901,0.0426818,0.009417,0.0810903,-0.0651875,0.0045186,
 -0.0144361,0.0461283,0.0067305,-0.0305061,0.0030277,-0.0038447,-0.0149
 61,0.1230709\Polar=147.521867,-0.0659237,96.5178066,-0.9772604,0.57079
 34,77.7129031\PG=C01 [X(C4H10Au1Cl1S1)]\NImag=0\\0.21806678,-0.0005749
 2,0.03603327,-0.02876205,0.00091541,0.03531106,-0.12789797,0.00024699,
 0.01962488,0.13402400,0.00040651,-0.01111713,-0.00017114,-0.00040331,0
 .00419083,0.01930903,-0.00014363,-0.01528016,-0.02146974,0.00007263,0.
 00947725,-0.00638258,0.01191840,-0.00641818,-0.00079429,-0.00192677,0.
 00137978,0.47556256,0.00387210,0.00029901,-0.00008995,-0.00150116,-0.0
 0023969,0.00023833,0.07839996,0.40090198,-0.00141862,-0.00358651,0.001
 71520,0.00085713,0.00067912,-0.00035349,-0.01532902,0.08753645,0.55636
 319,-0.00026232,0.00015033,-0.00004629,0.00025635,-0.00000609,-0.00004
 169,-0.19815406,0.00581877,0.01704383,0.48324317,-0.00041420,-0.002565
 73,0.00161715,0.00098683,0.00058457,-0.00049377,0.01085055,-0.07474832
 ,-0.00757675,0.02655797,0.57162084,0.00010078,0.00162280,-0.00059031,-
 0.00052274,-0.00035080,0.00025264,0.01419919,-0.00590750,-0.08555639,0
 .00711983,-0.00006568,0.58694915,-0.00013007,0.00039572,0.00026838,0.0
 0004527,-0.00006361,-0.00004959,-0.11833694,-0.10296426,-0.06457005,-0
 .01814683,-0.02352171,-0.01544287,0.13142425,-0.00016693,0.00053935,-0
 .00010798,-0.00007107,-0.00005324,0.00004751,-0.10487606,-0.18928629,-
 0.09459100,0.00388167,0.00586564,0.00320469,0.10636701,0.20515682,0.00
 011885,0.00000244,0.00012335,-0.00001928,0.00006373,-0.00005246,-0.062
 30765,-0.09324272,-0.10841712,0.00257061,0.00384248,0.00269073,0.07069
 051,0.09783370,0.11263101,-0.00018753,-0.00004626,-0.00037713,0.000087
 98,-0.00002462,0.00009228,-0.07067873,0.00042240,0.07369657,-0.0088743
 6,0.00077491,0.03236331,0.00463394,0.00022512,-0.01591759,0.07790778,-
 0.00020412,0.00052996,-0.00052680,0.00006270,-0.00011927,0.00008973,-0
 .00376933,-0.04374883,-0.00876746,0.00078180,0.00087703,-0.00450844,0.
 00699940,0.00142493,-0.02397820,-0.00499569,0.05069643,0.00029407,-0.0
 0041067,0.00075309,-0.00015192,0.00002862,-0.00007668,0.07451713,-0.01
 157531,-0.30225066,0.00020434,-0.00048203,0.00041495,0.00391855,-0.000
 22215,-0.01281156,-0.07898486,0.00929392,0.31932241,0.00019538,0.00093
 506,-0.00053063,-0.00042845,-0.00022326,0.00019075,-0.00905563,0.02941
 306,-0.01244895,-0.06159429,0.05478802,-0.02265561,0.00143069,-0.00028
 755,-0.00055724,0.00102514,-0.00020519,0.00049448,0.06779835,-0.000227
 00,-0.00007940,0.00004727,0.00010563,0.00003143,-0.00002795,0.00171596
 ,-0.00405721,0.00133244,0.05455626,-0.26370323,0.08932482,0.00013766,0
 .00075681,-0.00002555,0.00020076,0.00013538,-0.00027382,-0.06080135,0.
 28383395,0.00021162,-0.00000652,0.00022106,-0.00003691,-0.00000030,-0.
 00005373,0.00060148,-0.00332909,0.00030573,-0.02247768,0.08895382,-0.0
 8589064,-0.00029532,0.00003841,0.00014289,-0.00037498,-0.00008017,0.00
 008730,0.02496536,-0.09810348,0.08776024,-0.00013702,-0.00016214,-0.00
 019455,0.00006865,0.00004000,0.00000849,-0.00985570,-0.00068249,0.0346
 9839,-0.06826955,-0.00238704,0.06654620,0.00118267,-0.00026520,-0.0003
 1205,-0.00655273,0.00101526,-0.00021128,0.00179862,-0.00090722,-0.0079
 4654,0.07532956,0.00016416,-0.00001428,0.00011782,-0.00013506,-0.00000
 684,-0.00000184,0.00243006,-0.00139392,-0.00511933,-0.00330907,-0.0502
 0945,0.00592197,-0.00016320,-0.00006374,0.00062988,0.00126581,0.000906
 38,-0.00016941,-0.00895417,0.00089901,0.02921201,0.00142133,0.04832599
 ,0.00010883,-0.00001529,0.00017867,0.00000792,-0.00000181,-0.00003638,
 0.00057294,0.00035349,-0.00094274,0.06869394,0.00517201,-0.29987990,0.
 00042012,0.00008695,0.00045845,-0.00008869,0.00033430,0.00153358,0.002
 36491,-0.00031504,-0.01018890,-0.07573230,-0.00652706,0.32247534,-0.00
 005867,0.00011498,0.00009414,-0.00000991,0.00000731,-0.00000831,-0.018
 15393,-0.02408957,-0.01772722,-0.12106510,-0.09504354,-0.06904909,-0.0
 0606461,0.00195850,0.00120480,0.00145659,0.00022046,0.00022420,0.00447
 848,0.00523328,0.00507218,0.00521955,0.00751274,0.00386701,0.13345791,
 0.00012063,0.00008310,-0.00003897,-0.00011495,-0.00001472,0.00002738,0
 .00433700,0.00486036,0.00468417,-0.09675624,-0.17656954,-0.09350860,0.
 00184008,0.00097937,0.00000257,-0.00071993,0.00005541,0.00018868,-0.01
 564719,-0.01965058,-0.01604041,0.00210885,0.00090779,0.00135654,0.1050
 8430,0.19072148,-0.00008246,0.00011310,-0.00001785,0.00004032,-0.00001
 298,-0.00000278,0.00230334,0.00468534,0.00220518,-0.06960706,-0.093484
 31,-0.11914207,0.00147640,-0.00024536,0.00108628,-0.00040923,0.0007036
 4,0.00056029,0.00782542,0.00874232,0.00671624,-0.01720785,-0.02272531,
 -0.01411984,0.07593990,0.10256044,0.12257255,-0.00646111,-0.00895646,-
 0.00745659,-0.00037459,0.00144700,0.00147977,0.00474084,0.00429813,0.0
 0799820,0.00120985,0.00051685,0.00058223,-0.00079175,0.00281063,-0.001
 69264,-0.00072181,0.00028316,0.00010155,-0.00046100,-0.00021078,-0.000
 20271,0.00002695,0.00003102,0.00004702,-0.00030830,-0.00018255,-0.0003
 3062,0.48650847,-0.00343845,-0.00099126,-0.00016267,0.00111201,0.00001
 905,-0.00021582,-0.00592363,-0.01469986,-0.01483156,0.00009647,0.00082
 819,-0.00022874,0.00204361,-0.00334523,0.00189364,-0.00121157,0.002970
 12,-0.00133057,-0.00031809,0.00013590,0.00015677,0.00017788,-0.0001700
 8,0.00016136,0.00016416,0.00020624,-0.00026974,-0.10078156,0.44594769,
 -0.00192953,0.00317551,0.00299267,0.00121269,-0.00064799,-0.00059488,0
 .00665282,0.00755227,0.00692004,0.00038224,-0.00038957,-0.00028553,-0.
 00195806,0.00312494,-0.00289374,0.00069848,0.00173139,0.00108230,-0.00
 003697,0.00003897,0.00005574,-0.00019902,-0.00023142,-0.00023278,-0.00
 066456,-0.00012669,0.00044281,-0.01737701,-0.09539814,0.49272812,-0.00
 015822,-0.00053189,-0.00039387,0.00003281,0.00007412,0.00005823,0.0007
 1101,-0.00037775,0.00025060,0.00071816,-0.00039327,0.00061855,-0.00028
 363,0.00018190,0.00011434,-0.00018844,-0.00022192,0.00001863,-0.000369
 40,-0.00037305,0.00000851,0.00003887,0.00029496,0.00029465,-0.00019060
 ,0.00001469,-0.00075673,-0.16669852,-0.02916838,0.04396226,0.51108128,
 0.00026773,-0.00135956,-0.00113747,-0.00053323,0.00033625,0.00033962,-
 0.00162036,-0.00094755,-0.00017001,0.00022640,-0.00007504,0.00022459,0
 .00059606,-0.00040093,0.00028669,0.00001426,-0.00013690,-0.00010020,0.
 00007716,0.00016374,-0.00005603,0.00005413,-0.00003686,-0.00012151,0.0
 0016522,-0.00097839,0.00028033,-0.03233463,-0.09213479,0.02454463,-0.0
 4500014,0.56014567,0.00027407,-0.00211352,-0.00140625,-0.00093110,0.00
 045940,0.00045543,-0.00083606,-0.00040974,-0.00112242,-0.00028992,-0.0
 0017060,-0.00014344,0.00050536,-0.00038881,0.00056452,-0.00012125,-0.0
 0030113,0.00008378,0.00016425,0.00011212,0.00007927,0.00004455,0.00010
 083,0.00011452,0.00042110,0.00011283,0.00014805,0.04109550,0.02184094,
 -0.09870804,0.02659145,0.01297533,0.57348971,0.00017318,-0.00003033,0.
 00004783,-0.00016474,0.00002714,0.00008410,0.00037963,0.00154796,0.000
 10347,0.00030579,-0.00002286,0.00039331,-0.00022033,0.00015780,0.00000
 808,0.00023053,-0.00051125,0.00052632,0.00006260,-0.00006568,-0.000121
 38,-0.00011056,-0.00006547,-0.00005560,-0.00023384,-0.00000175,0.00003
 148,-0.05362343,0.01559944,-0.03200788,0.00514640,-0.01193847,0.027676
 51,0.05588342,0.00019196,0.00010319,0.00008563,-0.00010957,0.00000590,
 0.00001231,0.00024474,0.00271663,-0.00075637,-0.00009804,-0.00026664,-
 0.00001754,-0.00022546,0.00045843,-0.00006955,-0.00010141,-0.00037079,
 0.00123329,0.00011506,0.00005090,0.00007892,-0.00017964,0.00006122,0.0
 0000354,0.00024388,0.00000874,0.00007595,0.01715599,-0.08584741,0.0982
 4971,0.00183949,-0.00424868,0.01097444,-0.01197759,0.09744745,-0.00005
 443,-0.00004104,0.00028581,-0.00017031,0.00001049,0.00001394,0.0001612
 3,0.00235687,0.00181743,0.00001646,-0.00041018,0.00001056,-0.00025547,
 0.00058906,0.00028544,0.00017775,-0.00126507,0.00055927,0.00012379,0.0
 0008266,0.00005093,-0.00004087,0.00017497,0.00008071,0.00049797,-0.000
 07176,-0.00003623,-0.02950513,0.10250172,-0.27328767,-0.00129149,0.004
 27471,-0.00816583,0.03302435,-0.10643426,0.29045532,-0.00078460,-0.001
 24105,-0.00014344,0.00020599,0.00018365,-0.00001356,-0.00071646,-0.001
 38382,-0.00309059,-0.00021162,-0.00041649,0.00001161,0.00030513,-0.000
 95783,0.00042463,-0.00007021,0.00023147,-0.00006086,0.00023929,0.00008
 361,0.00005901,-0.00001307,-0.00002219,-0.00001723,0.00012163,-0.00001
 409,0.00014657,-0.18780142,0.14209819,0.00965661,-0.02065262,0.0186592
 4,0.00175544,-0.00237822,0.00267481,0.00048005,0.20698049,0.00013671,0
 .00080259,0.00049908,0.00014091,-0.00008717,-0.00009001,-0.00202840,-0
 .00238770,-0.00328671,-0.00032960,0.00015374,-0.00011992,0.00074501,-0
 .00107119,0.00056306,0.00008401,0.00039899,-0.00025753,0.00005353,0.00
 004564,0.00005396,0.00000488,-0.00005453,-0.00003218,-0.00000795,0.000
 06087,0.00011627,0.14267384,-0.18218712,-0.00666982,-0.01142640,0.0116
 8288,0.00122116,0.00808137,-0.00738724,-0.00052705,-0.14478526,0.19618
 757,0.00026840,0.00018412,0.00058695,0.00001250,-0.00004464,-0.0001913
 5,-0.00113631,-0.00078586,-0.00313809,-0.00001904,-0.00023890,0.000044
 96,0.00037013,-0.00064062,0.00071631,-0.00013199,0.00019731,0.00021803
 ,0.00011222,0.00002204,0.00005350,0.00001031,0.00008608,0.00008143,0.0
 0022692,0.00000571,-0.00006473,0.01281975,-0.00690348,-0.04961188,0.01
 053405,-0.00894640,-0.00023338,-0.02138606,0.02226523,0.00349035,-0.01
 033399,0.00942411,0.05000809,0.00018400,-0.00061863,-0.00048320,-0.000
 34992,0.00015776,0.00016833,-0.00086055,-0.00025408,-0.00038620,-0.000
 23023,0.00008856,-0.00007306,0.00026352,-0.00023354,0.00022535,0.00004
 518,-0.00008054,0.00001018,0.00016761,0.00009470,-0.00000883,-0.000005
 09,-0.00008887,-0.00010513,0.00017558,0.00007037,0.00022610,-0.0094005
 6,-0.01999815,-0.01674384,-0.07416383,-0.05936140,-0.04960174,0.001076
 13,0.00018786,0.00010587,0.00073261,0.00068790,-0.00057543,0.07904523,
 0.00028509,-0.00031783,-0.00017981,-0.00021231,0.00007922,0.00007456,0
 .00001439,0.00008243,-0.00012904,0.00021716,-0.00010496,0.00024546,0.0
 0001875,-0.00001839,0.00005028,-0.00003574,-0.00001620,0.00000030,-0.0
 0008256,-0.00010124,-0.00002537,0.00003114,0.00009989,0.00006873,-0.00
 009335,-0.00012193,-0.00025595,-0.00426319,-0.00996107,-0.00698729,-0.
 05913444,-0.19123361,-0.11814524,0.00034594,0.00011989,0.00027163,0.00
 001876,0.00059761,0.00009224,0.06753243,0.20463888,0.00015457,0.000274
 00,0.00038922,0.00007967,-0.00005682,-0.00010320,-0.00004892,0.0001512
 3,0.00029839,0.00003321,0.00003657,-0.00007419,-0.00010654,0.00005371,
 -0.00007853,0.00002713,-0.00005924,0.00000775,-0.00004700,-0.00000949,
 0.00001513,-0.00000494,0.00003354,0.00002167,-0.00004706,0.00000558,-0
 .00003633,0.00373484,0.00952054,0.00711038,-0.04947771,-0.11758525,-0.
 14665263,-0.00070399,-0.00009700,0.00045963,-0.00058573,-0.00023152,0.
 00048832,0.05289799,0.12937716,0.15554745,-0.00014478,-0.00006447,-0.0
 0015215,0.00003098,-0.00001647,0.00002010,-0.00048750,-0.00000890,-0.0
 0006539,-0.00068875,0.00015735,-0.00061298,0.00016897,-0.00007161,0.00
 005802,0.00006545,-0.00005544,0.00001245,0.00038434,0.00033507,0.00010
 066,-0.00004634,-0.00015608,-0.00012128,0.00054062,0.00018692,0.000595
 52,-0.02135749,0.01988645,0.00139814,-0.18857451,0.13296888,0.01110235
 ,0.00109860,-0.00024377,-0.00010448,-0.00358167,-0.00322491,0.00247615
 ,0.00918869,-0.00762353,0.00008370,0.20572371,-0.00003138,0.00010831,0
 .00005671,0.00007288,-0.00002289,-0.00002694,-0.00004979,0.00019988,0.
 00021619,0.00005734,-0.00094724,0.00020716,-0.00001380,0.00003553,-0.0
 0002217,0.00000495,-0.00003282,0.00001539,0.00000639,-0.00009284,0.000
 00087,-0.00000837,0.00005221,0.00006777,-0.00013634,-0.00134471,0.0003
 0404,-0.01285415,0.01133932,0.00052299,0.13554377,-0.17829855,-0.01137
 349,0.00089229,0.00048380,-0.00050832,-0.00336605,-0.00039993,0.001518
 67,0.01725616,-0.01578249,0.00006226,-0.14557328,0.19232548,-0.0000782
 5,0.00004413,-0.00007391,0.00007962,-0.00000246,0.00000753,0.00015626,
 -0.00011114,0.00016498,0.00025011,0.00046239,0.00045628,-0.00009657,0.
 00009348,-0.00008218,0.00004445,0.00001493,-0.00002746,-0.00006711,-0.
 00005906,-0.00012040,-0.00009579,-0.00028793,-0.00018004,-0.00019393,0
 .00036303,-0.00004642,0.00871354,-0.00999237,-0.00133925,0.01136959,-0
 .01052714,-0.05143530,-0.00024747,-0.00067632,0.00019678,0.00228304,0.
 00153839,0.00000156,0.01571131,-0.01349117,-0.00112616,-0.01495301,0.0
 1088786,0.04963458,-0.00002792,0.00012023,0.00000267,0.00004707,-0.000
 01525,-0.00002302,0.00001947,-0.00011867,-0.00004315,-0.00013053,-0.00
 002452,-0.00026369,0.00006431,-0.00002040,-0.00004903,0.00000768,0.000
 16544,-0.00012093,0.00005646,0.00007894,0.00005453,0.00002130,0.000008
 90,0.00001610,0.00005086,-0.00004834,0.00015844,0.00405042,-0.01295206
 ,0.02932460,-0.05675030,0.01823644,-0.04108220,-0.00522722,-0.00263584
 ,0.00196731,0.00131030,0.00048067,-0.00037262,-0.00226581,0.00478738,-
 0.00850992,-0.00332695,0.00770438,-0.02260921,0.06117360,-0.00016417,0
 .00005863,-0.00016227,0.00011064,-0.00002192,0.00000597,0.00029913,-0.
 00031679,-0.00022568,0.00016991,0.00010788,0.00032355,-0.00003858,0.00
 001059,-0.00005238,-0.00004760,0.00018693,-0.00010519,-0.00008321,-0.0
 0009882,-0.00007897,-0.00000250,-0.00007802,-0.00004112,-0.00020883,0.
 00001256,-0.00017167,0.00081975,-0.00661295,0.01196510,0.01761574,-0.0
 8964141,0.09333317,-0.00248894,0.00013464,0.00070886,0.00000456,0.0005
 0190,-0.00080829,-0.00336082,0.01133668,-0.02298879,0.00294054,-0.0087
 2019,0.02133395,-0.01634234,0.09269155,0.00002748,-0.00002586,0.000069
 98,0.00006120,-0.00000208,-0.00001838,-0.00005515,-0.00007449,0.000184
 76,-0.00004521,-0.00003151,-0.00004560,-0.00002588,0.00001591,0.000021
 91,-0.00000049,-0.00019947,-0.00003145,-0.00000500,0.00000189,0.000013
 08,0.00000499,0.00001056,0.00001583,0.00003242,0.00006151,-0.00002829,
 -0.00155003,0.00355451,-0.01013083,-0.03859089,0.09465770,-0.27194575,
 0.00207223,0.00038329,0.00077116,0.00017533,-0.00024346,0.00021139,-0.
 00292936,0.00783250,-0.01671726,0.00002834,-0.00174788,0.00383602,0.04
 087388,-0.10420543,0.29303950,-0.07598657,-0.00165555,0.02492018,-0.00
 477923,0.00033589,-0.00118496,-0.04793713,0.00760832,-0.01956901,-0.00
 810567,0.02750260,-0.01331497,0.00445542,-0.00863242,0.00544030,0.0018
 1354,0.00028379,-0.00079206,-0.00572819,0.00004322,0.00039100,0.001303
 91,-0.00023487,-0.00027320,0.00058375,-0.00027779,-0.00034955,-0.04853
 655,-0.00738631,-0.02237095,-0.00969845,-0.02047731,-0.01676829,-0.002
 39797,-0.00708249,-0.00513260,0.00631444,0.00871371,0.00712498,-0.0036
 0254,-0.00180591,0.00252071,0.00100663,0.00049499,-0.00026658,0.000927
 26,0.00077671,-0.00007388,0.19036735,-0.00022371,-0.02211223,-0.000761
 99,0.00024206,0.00643559,0.00009193,0.00998417,-0.07723413,0.04459205,
 0.00798497,-0.01084774,0.00363220,0.00784735,-0.02098847,0.01222210,0.
 00419060,-0.01375675,0.00416665,0.00121430,0.00173054,-0.00077440,-0.0
 0025885,0.00077521,-0.00055070,-0.00112525,0.00078395,-0.00041611,-0.0
 1045305,-0.06549676,-0.04045459,-0.00893742,-0.01283626,-0.00822770,0.
 00045039,-0.00347006,-0.00171329,-0.01176751,-0.01685690,-0.01542731,-
 0.00207971,0.00070311,0.00151352,0.00056325,0.00109711,0.00040943,0.00
 057502,0.00044874,0.00001231,0.00179341,0.23162507,0.01145765,0.000011
 54,-0.02525858,0.00132606,-0.00002297,0.00655670,-0.01441288,0.0126518
 1,-0.06819398,-0.00378769,0.00325887,0.00078881,0.00515090,-0.00889246
 ,0.00561469,-0.01069376,0.02732078,-0.00942497,0.00010732,-0.00089014,
 0.00075256,0.00063226,-0.00122536,0.00062039,0.00010954,0.00041801,-0.
 00023686,-0.01845766,-0.01029637,-0.07424746,-0.00331018,0.00106040,0.
 00487777,-0.00944530,-0.02531129,-0.01698761,-0.00074690,-0.00195780,-
 0.00266145,0.00156165,0.00120100,0.00045038,0.00013387,-0.00018110,0.0
 0013339,0.00067622,0.00116918,0.00075393,0.03969889,0.00168589,0.17646
 230\\-0.00000305,0.00000712,0.00000927,-0.00000516,0.00000979,0.000013
 29,-0.00000821,0.00000951,0.00000104,-0.00000319,-0.00000468,-0.000000
 31,-0.00000581,0.00000017,0.00000439,0.00000066,-0.00000111,0.00000432
 ,-0.00000370,-0.00000123,0.00000283,-0.00000619,-0.00000554,-0.0000009
 1,0.00000062,-0.00000159,-0.00000370,-0.00000363,-0.00000089,-0.000002
 60,0.00000429,-0.00000075,-0.00000550,0.00000529,0.00000231,0.00000020
 ,0.00000581,0.00000242,0.00000026,0.00000638,-0.00000216,-0.00000884,0
 .00000164,-0.00000453,-0.00000753,0.00000251,-0.00000326,-0.00000737,0
 .00001175,-0.00000557,0.00000116\\\@


 "MATHEMATICS IS THE ART OF GIVING THE SAME NAME
 TO DIFFERENT THINGS."
                    - H. POINCARE
 Job cpu time:       0 days  0 hours  7 minutes 43.5 seconds.
 File lengths (MBytes):  RWF=     61 Int=      0 D2E=      0 Chk=      3 Scr=      1
 Normal termination of Gaussian 09 at Thu May 18 08:06:45 2023.
