 Entering Gaussian System, Link 0=g09
 Input=AF59-helio.com
 Output=AF59-helio.log
 Initial command:
 /home/scr/programs/g09/l1.exe "/home/scr/guest2/Gau-4993.inp" -scrdir="/home/scr/guest2/"
 Entering Link 1 = /home/scr/programs/g09/l1.exe PID=      4994.
  
 Copyright (c) 1988,1990,1992,1993,1995,1998,2003,2009,2013,
            Gaussian, Inc.  All Rights Reserved.
  
 This is part of the Gaussian(R) 09 program.  It is based on
 the Gaussian(R) 03 system (copyright 2003, Gaussian, Inc.),
 the Gaussian(R) 98 system (copyright 1998, Gaussian, Inc.),
 the Gaussian(R) 94 system (copyright 1995, Gaussian, Inc.),
 the Gaussian 92(TM) system (copyright 1992, Gaussian, Inc.),
 the Gaussian 90(TM) system (copyright 1990, Gaussian, Inc.),
 the Gaussian 88(TM) system (copyright 1988, Gaussian, Inc.),
 the Gaussian 86(TM) system (copyright 1986, Carnegie Mellon
 University), and the Gaussian 82(TM) system (copyright 1983,
 Carnegie Mellon University). Gaussian is a federally registered
 trademark of Gaussian, Inc.
  
 This software contains proprietary and confidential information,
 including trade secrets, belonging to Gaussian, Inc.
  
 This software is provided under written license and may be
 used, copied, transmitted, or stored only in accord with that
 written license.
  
 The following legend is applicable only to US Government
 contracts under FAR:
  
                    RESTRICTED RIGHTS LEGEND
  
 Use, reproduction and disclosure by the US Government is
 subject to restrictions as set forth in subparagraphs (a)
 and (c) of the Commercial Computer Software - Restricted
 Rights clause in FAR 52.227-19.
  
 Gaussian, Inc.
 340 Quinnipiac St., Bldg. 40, Wallingford CT 06492
  
  
 ---------------------------------------------------------------
 Warning -- This program may not be used in any manner that
 competes with the business of Gaussian, Inc. or will provide
 assistance to any competitor of Gaussian, Inc.  The licensee
 of this program is prohibited from giving any competitor of
 Gaussian, Inc. access to this program.  By using this program,
 the user acknowledges that Gaussian, Inc. is engaged in the
 business of creating and licensing software in the field of
 computational chemistry and represents and warrants to the
 licensee that it is not a competitor of Gaussian, Inc. and that
 it will not use this program in any manner prohibited above.
 ---------------------------------------------------------------
  

 Cite this work as:
 Gaussian 09, Revision D.01,
 M. J. Frisch, G. W. Trucks, H. B. Schlegel, G. E. Scuseria, 
 M. A. Robb, J. R. Cheeseman, G. Scalmani, V. Barone, B. Mennucci, 
 G. A. Petersson, H. Nakatsuji, M. Caricato, X. Li, H. P. Hratchian, 
 A. F. Izmaylov, J. Bloino, G. Zheng, J. L. Sonnenberg, M. Hada, 
 M. Ehara, K. Toyota, R. Fukuda, J. Hasegawa, M. Ishida, T. Nakajima, 
 Y. Honda, O. Kitao, H. Nakai, T. Vreven, J. A. Montgomery, Jr., 
 J. E. Peralta, F. Ogliaro, M. Bearpark, J. J. Heyd, E. Brothers, 
 K. N. Kudin, V. N. Staroverov, T. Keith, R. Kobayashi, J. Normand, 
 K. Raghavachari, A. Rendell, J. C. Burant, S. S. Iyengar, J. Tomasi, 
 M. Cossi, N. Rega, J. M. Millam, M. Klene, J. E. Knox, J. B. Cross, 
 V. Bakken, C. Adamo, J. Jaramillo, R. Gomperts, R. E. Stratmann, 
 O. Yazyev, A. J. Austin, R. Cammi, C. Pomelli, J. W. Ochterski, 
 R. L. Martin, K. Morokuma, V. G. Zakrzewski, G. A. Voth, 
 P. Salvador, J. J. Dannenberg, S. Dapprich, A. D. Daniels, 
 O. Farkas, J. B. Foresman, J. V. Ortiz, J. Cioslowski, 
 and D. J. Fox, Gaussian, Inc., Wallingford CT, 2013.
 
 ******************************************
 Gaussian 09:  EM64L-G09RevD.01 24-Apr-2013
                18-May-2023 
 ******************************************
 %mem=30000MB
 %nprocshared=8
 Will use up to    8 processors via shared memory.
 ----------------------------------------
 # opt freq=noraman b3lyp/gen pseudo=read
 ----------------------------------------
 1/14=-1,18=20,19=15,26=3,38=1/1,3;
 2/9=110,12=2,17=6,18=5,40=1/2;
 3/5=7,11=2,16=1,17=8,25=1,30=1,71=1,74=-5/1,2,3;
 4//1;
 5/5=2,38=5/2;
 6/7=2,8=2,9=2,10=2,28=1/1;
 7//1,2,3,16;
 1/14=-1,18=20,19=15,26=3/3(2);
 2/9=110/2;
 99//99;
 2/9=110/2;
 3/5=7,6=1,11=2,16=1,17=8,25=1,30=1,71=1,74=-5,82=7/1,2,3;
 4/5=5,16=3,69=1/1;
 5/5=2,38=5/2;
 7//1,2,3,16;
 1/14=-1,18=20,19=15,26=3/3(-5);
 2/9=110/2;
 6/7=2,8=2,9=2,10=2,19=2,28=1/1;
 99/9=1/99;
 --
 af
 --
 Symbolic Z-matrix:
 Charge =  0 Multiplicity = 1
 C                     2.36127   0.96658   1.27466 
 C                     2.1347   -0.53286   1.38383 
 C                     2.13444  -0.53326  -1.38354 
 C                     2.36057   0.96635  -1.27488 
 C                     3.09959   1.36894  -0.00036 
 H                     3.08164  -1.08448   1.38751 
 H                     1.57661  -0.80559   2.28261 
 H                     1.3935    1.4817    1.32939 
 H                     2.9405    1.27865   2.152 
 H                     3.08169  -1.08439  -1.38693 
 H                     1.57698  -0.8065   -2.28257 
 H                     2.93907   1.27865  -2.1526 
 H                     1.39249   1.48097  -1.32889 
 H                     4.0986    0.9113   -0.00065 
 H                     3.25322   2.45317  -0.00048 
 S                     1.18296  -1.22686  -0.00011 
 Au                   -0.84719  -0.16279   0.00007 
 Cl                   -2.93396   0.82191  -0.00011 
 

 GradGradGradGradGradGradGradGradGradGradGradGradGradGradGradGradGradGrad
 Berny optimization.
 Initialization pass.
                           ----------------------------
                           !    Initial Parameters    !
                           ! (Angstroms and Degrees)  !
 --------------------------                            --------------------------
 ! Name  Definition              Value          Derivative Info.                !
 --------------------------------------------------------------------------------
 ! R1    R(1,2)                  1.5204         estimate D2E/DX2                !
 ! R2    R(1,5)                  1.5273         estimate D2E/DX2                !
 ! R3    R(1,8)                  1.0977         estimate D2E/DX2                !
 ! R4    R(1,9)                  1.0966         estimate D2E/DX2                !
 ! R5    R(2,6)                  1.0959         estimate D2E/DX2                !
 ! R6    R(2,7)                  1.0925         estimate D2E/DX2                !
 ! R7    R(2,16)                 1.8173         estimate D2E/DX2                !
 ! R8    R(3,4)                  1.5205         estimate D2E/DX2                !
 ! R9    R(3,10)                 1.0959         estimate D2E/DX2                !
 ! R10   R(3,11)                 1.0926         estimate D2E/DX2                !
 ! R11   R(3,16)                 1.8167         estimate D2E/DX2                !
 ! R12   R(4,5)                  1.5273         estimate D2E/DX2                !
 ! R13   R(4,12)                 1.0966         estimate D2E/DX2                !
 ! R14   R(4,13)                 1.0977         estimate D2E/DX2                !
 ! R15   R(5,14)                 1.0988         estimate D2E/DX2                !
 ! R16   R(5,15)                 1.0951         estimate D2E/DX2                !
 ! R17   R(16,17)                2.2921         estimate D2E/DX2                !
 ! R18   R(17,18)                2.3074         estimate D2E/DX2                !
 ! A1    A(2,1,5)              113.0663         estimate D2E/DX2                !
 ! A2    A(2,1,8)              109.1386         estimate D2E/DX2                !
 ! A3    A(2,1,9)              107.5721         estimate D2E/DX2                !
 ! A4    A(5,1,8)              110.1328         estimate D2E/DX2                !
 ! A5    A(5,1,9)              109.7288         estimate D2E/DX2                !
 ! A6    A(8,1,9)              106.9923         estimate D2E/DX2                !
 ! A7    A(1,2,6)              111.5857         estimate D2E/DX2                !
 ! A8    A(1,2,7)              112.4192         estimate D2E/DX2                !
 ! A9    A(1,2,16)             113.5765         estimate D2E/DX2                !
 ! A10   A(6,2,7)              108.239          estimate D2E/DX2                !
 ! A11   A(6,2,16)             105.2395         estimate D2E/DX2                !
 ! A12   A(7,2,16)             105.2848         estimate D2E/DX2                !
 ! A13   A(4,3,10)             111.5724         estimate D2E/DX2                !
 ! A14   A(4,3,11)             112.4173         estimate D2E/DX2                !
 ! A15   A(4,3,16)             113.5802         estimate D2E/DX2                !
 ! A16   A(10,3,11)            108.223          estimate D2E/DX2                !
 ! A17   A(10,3,16)            105.251          estimate D2E/DX2                !
 ! A18   A(11,3,16)            105.3022         estimate D2E/DX2                !
 ! A19   A(3,4,5)              113.0529         estimate D2E/DX2                !
 ! A20   A(3,4,12)             107.5855         estimate D2E/DX2                !
 ! A21   A(3,4,13)             109.1303         estimate D2E/DX2                !
 ! A22   A(5,4,12)             109.7301         estimate D2E/DX2                !
 ! A23   A(5,4,13)             110.1344         estimate D2E/DX2                !
 ! A24   A(12,4,13)            106.9988         estimate D2E/DX2                !
 ! A25   A(1,5,4)              113.1594         estimate D2E/DX2                !
 ! A26   A(1,5,14)             109.269          estimate D2E/DX2                !
 ! A27   A(1,5,15)             109.1931         estimate D2E/DX2                !
 ! A28   A(4,5,14)             109.2636         estimate D2E/DX2                !
 ! A29   A(4,5,15)             109.1944         estimate D2E/DX2                !
 ! A30   A(14,5,15)            106.5472         estimate D2E/DX2                !
 ! A31   A(2,16,3)              99.1966         estimate D2E/DX2                !
 ! A32   A(2,16,17)            106.6491         estimate D2E/DX2                !
 ! A33   A(3,16,17)            106.6611         estimate D2E/DX2                !
 ! A34   L(16,17,18,13,-1)     182.1082         estimate D2E/DX2                !
 ! A35   L(16,17,18,13,-2)     178.7426         estimate D2E/DX2                !
 ! D1    D(5,1,2,6)             60.102          estimate D2E/DX2                !
 ! D2    D(5,1,2,7)           -178.0726         estimate D2E/DX2                !
 ! D3    D(5,1,2,16)           -58.6541         estimate D2E/DX2                !
 ! D4    D(8,1,2,6)           -176.9571         estimate D2E/DX2                !
 ! D5    D(8,1,2,7)            -55.1317         estimate D2E/DX2                !
 ! D6    D(8,1,2,16)            64.2868         estimate D2E/DX2                !
 ! D7    D(9,1,2,6)            -61.2112         estimate D2E/DX2                !
 ! D8    D(9,1,2,7)             60.6142         estimate D2E/DX2                !
 ! D9    D(9,1,2,16)          -179.9673         estimate D2E/DX2                !
 ! D10   D(2,1,5,4)             59.7431         estimate D2E/DX2                !
 ! D11   D(2,1,5,14)           -62.2398         estimate D2E/DX2                !
 ! D12   D(2,1,5,15)          -178.4174         estimate D2E/DX2                !
 ! D13   D(8,1,5,4)            -62.6445         estimate D2E/DX2                !
 ! D14   D(8,1,5,14)           175.3725         estimate D2E/DX2                !
 ! D15   D(8,1,5,15)            59.195          estimate D2E/DX2                !
 ! D16   D(9,1,5,4)            179.8302         estimate D2E/DX2                !
 ! D17   D(9,1,5,14)            57.8473         estimate D2E/DX2                !
 ! D18   D(9,1,5,15)           -58.3303         estimate D2E/DX2                !
 ! D19   D(1,2,16,3)            50.6882         estimate D2E/DX2                !
 ! D20   D(1,2,16,17)          -59.8951         estimate D2E/DX2                !
 ! D21   D(6,2,16,3)           -71.6502         estimate D2E/DX2                !
 ! D22   D(6,2,16,17)          177.7664         estimate D2E/DX2                !
 ! D23   D(7,2,16,3)           174.0987         estimate D2E/DX2                !
 ! D24   D(7,2,16,17)           63.5153         estimate D2E/DX2                !
 ! D25   D(10,3,4,5)           -60.0596         estimate D2E/DX2                !
 ! D26   D(10,3,4,12)           61.2561         estimate D2E/DX2                !
 ! D27   D(10,3,4,13)          177.0126         estimate D2E/DX2                !
 ! D28   D(11,3,4,5)           178.1469         estimate D2E/DX2                !
 ! D29   D(11,3,4,12)          -60.5374         estimate D2E/DX2                !
 ! D30   D(11,3,4,13)           55.2191         estimate D2E/DX2                !
 ! D31   D(16,3,4,5)            58.7044         estimate D2E/DX2                !
 ! D32   D(16,3,4,12)         -179.9799         estimate D2E/DX2                !
 ! D33   D(16,3,4,13)          -64.2234         estimate D2E/DX2                !
 ! D34   D(4,3,16,2)           -50.7121         estimate D2E/DX2                !
 ! D35   D(4,3,16,17)           59.8616         estimate D2E/DX2                !
 ! D36   D(10,3,16,2)           71.6199         estimate D2E/DX2                !
 ! D37   D(10,3,16,17)        -177.8063         estimate D2E/DX2                !
 ! D38   D(11,3,16,2)         -174.1348         estimate D2E/DX2                !
 ! D39   D(11,3,16,17)         -63.561          estimate D2E/DX2                !
 ! D40   D(3,4,5,1)            -59.7594         estimate D2E/DX2                !
 ! D41   D(3,4,5,14)            62.2265         estimate D2E/DX2                !
 ! D42   D(3,4,5,15)           178.4018         estimate D2E/DX2                !
 ! D43   D(12,4,5,1)          -179.8558         estimate D2E/DX2                !
 ! D44   D(12,4,5,14)          -57.8698         estimate D2E/DX2                !
 ! D45   D(12,4,5,15)           58.3055         estimate D2E/DX2                !
 ! D46   D(13,4,5,1)            62.6093         estimate D2E/DX2                !
 ! D47   D(13,4,5,14)         -175.4048         estimate D2E/DX2                !
 ! D48   D(13,4,5,15)          -59.2294         estimate D2E/DX2                !
 --------------------------------------------------------------------------------
 Trust Radius=3.00D-01 FncErr=1.00D-07 GrdErr=1.00D-06
 Number of steps in this run=    108 maximum allowed number of steps=    108.
 GradGradGradGradGradGradGradGradGradGradGradGradGradGradGradGradGradGrad

                          Input orientation:                          
 ---------------------------------------------------------------------
 Center     Atomic      Atomic             Coordinates (Angstroms)
 Number     Number       Type             X           Y           Z
 ---------------------------------------------------------------------
      1          6           0        2.361266    0.966581    1.274657
      2          6           0        2.134703   -0.532862    1.383833
      3          6           0        2.134445   -0.533264   -1.383542
      4          6           0        2.360566    0.966351   -1.274880
      5          6           0        3.099589    1.368938   -0.000355
      6          1           0        3.081638   -1.084477    1.387508
      7          1           0        1.576611   -0.805587    2.282608
      8          1           0        1.393503    1.481700    1.329390
      9          1           0        2.940502    1.278647    2.152000
     10          1           0        3.081686   -1.084390   -1.386925
     11          1           0        1.576980   -0.806497   -2.282569
     12          1           0        2.939073    1.278648   -2.152602
     13          1           0        1.392492    1.480967   -1.328890
     14          1           0        4.098602    0.911304   -0.000647
     15          1           0        3.253216    2.453168   -0.000482
     16         16           0        1.182958   -1.226864   -0.000105
     17         79           0       -0.847188   -0.162792    0.000074
     18         17           0       -2.933955    0.821909   -0.000109
 ---------------------------------------------------------------------
                    Distance matrix (angstroms):
                    1          2          3          4          5
     1  C    0.000000
     2  C    1.520388   0.000000
     3  C    3.060556   2.767375   0.000000
     4  C    2.549537   3.060622   1.520455   0.000000
     5  C    1.527307   2.542405   2.542259   1.527300   0.000000
     6  H    2.176812   1.095892   2.979887   3.437172   2.818817
     7  H    2.184543   1.092539   3.718332   4.050935   3.501420
     8  H    1.097683   2.147278   3.459635   2.825423   2.166026
     9  H    1.096645   2.126254   4.053740   3.489608   2.160114
    10  H    3.436496   2.979607   1.095909   2.176719   2.818105
    11  H    4.051267   3.718660   1.092553   2.184590   3.501336
    12  H    3.489606   4.054004   2.126477   1.096629   2.160112
    13  H    2.825168   3.459082   2.147233   1.097686   2.166042
    14  H    2.155874   2.803444   2.803050   2.155799   1.098843
    15  H    2.152091   3.476172   3.476101   2.152101   1.095060
    16  S    2.797254   1.817345   1.816675   2.796785   3.226711
    17  Au   3.632385   3.308083   3.307836   3.631826   4.233585
    18  Cl   5.448424   5.426048   5.425777   5.447739   6.058291
                    6          7          8          9         10
     6  H    0.000000
     7  H    1.773158   0.000000
     8  H    3.072205   2.484720   0.000000
     9  H    2.487714   2.494251   1.763838   0.000000
    10  H    2.774433   3.975985   4.100384   4.257683   0.000000
    11  H    3.976271   4.565177   4.279691   5.086494   1.773004
    12  H    4.258763   5.086396   3.815008   4.304602   2.488081
    13  H    4.100431   4.278451   2.658280   3.814953   3.072100
    14  H    2.635210   3.810696   3.067884   2.471847   2.634137
    15  H    3.804062   4.317753   2.484118   2.471936   3.803415
    16  S    2.355999   2.354403   3.024600   3.741404   2.355576
    17  Au   4.267335   3.390862   3.080930   4.588587   4.267219
    18  Cl   6.461203   5.310814   4.574908   6.272912   6.461050
                   11         12         13         14         15
    11  H    0.000000
    12  H    2.493996   0.000000
    13  H    2.485162   1.763901   0.000000
    14  H    3.810064   2.471914   3.067862   0.000000
    15  H    4.317766   2.471802   2.484378   1.758415   0.000000
    16  S    2.354061   3.740959   3.023561   3.615625   4.222393
    17  Au   3.391372   4.587759   3.079652   5.061079   4.863801
    18  Cl   5.311296   6.271706   4.573638   7.033125   6.398601
                   16         17         18
    16  S    0.000000
    17  Au   2.292104   0.000000
    18  Cl   4.598526   2.307430   0.000000
 Stoichiometry    C5H10AuClS
 Framework group  C1[X(C5H10AuClS)]
 Deg. of freedom    48
 Full point group                 C1      NOp   1
 Largest Abelian subgroup         C1      NOp   1
 Largest concise Abelian subgroup C1      NOp   1
                         Standard orientation:                         
 ---------------------------------------------------------------------
 Center     Atomic      Atomic             Coordinates (Angstroms)
 Number     Number       Type             X           Y           Z
 ---------------------------------------------------------------------
      1          6           0        2.361266    0.966581    1.274657
      2          6           0        2.134703   -0.532862    1.383833
      3          6           0        2.134445   -0.533264   -1.383542
      4          6           0        2.360566    0.966351   -1.274880
      5          6           0        3.099589    1.368938   -0.000355
      6          1           0        3.081638   -1.084477    1.387508
      7          1           0        1.576611   -0.805587    2.282608
      8          1           0        1.393503    1.481700    1.329390
      9          1           0        2.940502    1.278647    2.152000
     10          1           0        3.081686   -1.084390   -1.386925
     11          1           0        1.576980   -0.806497   -2.282569
     12          1           0        2.939073    1.278648   -2.152602
     13          1           0        1.392492    1.480967   -1.328890
     14          1           0        4.098602    0.911304   -0.000647
     15          1           0        3.253216    2.453168   -0.000482
     16         16           0        1.182958   -1.226864   -0.000105
     17         79           0       -0.847188   -0.162792    0.000074
     18         17           0       -2.933955    0.821909   -0.000109
 ---------------------------------------------------------------------
 Rotational constants (GHZ):      1.9537637      0.4955080      0.4794274
 General basis read from cards:  (5D, 7F)
 ======================================================================================================
                                       Pseudopotential Parameters
 ======================================================================================================
  Center     Atomic      Valence      Angular      Power
  Number     Number     Electrons     Momentum     of R      Exponent        Coefficient   SO-Coeffient
 ======================================================================================================
    1          6
                                   No pseudopotential on this center.
    2          6
                                   No pseudopotential on this center.
    3          6
                                   No pseudopotential on this center.
    4          6
                                   No pseudopotential on this center.
    5          6
                                   No pseudopotential on this center.
    6          1
                                   No pseudopotential on this center.
    7          1
                                   No pseudopotential on this center.
    8          1
                                   No pseudopotential on this center.
    9          1
                                   No pseudopotential on this center.
   10          1
                                   No pseudopotential on this center.
   11          1
                                   No pseudopotential on this center.
   12          1
                                   No pseudopotential on this center.
   13          1
                                   No pseudopotential on this center.
   14          1
                                   No pseudopotential on this center.
   15          1
                                   No pseudopotential on this center.
   16         16
                                   No pseudopotential on this center.
   17         79           19
                                      G and up 
                                                     1      622.6287956      -60.00000000    0.00000000
                                                     2      136.2843607     -555.52923120    0.00000000
                                                     2       33.1549781     -168.00197850    0.00000000
                                                     2        9.9894895      -63.03998750    0.00000000
                                                     2        3.0481312       -4.25166810    0.00000000
                                      S - G
                                                     0      194.7374304        3.00000000    0.00000000
                                                     1      351.5327447       38.60208800    0.00000000
                                                     2      122.3270402      864.83707270    0.00000000
                                                     2       32.0914617      374.99355200    0.00000000
                                                     2        5.2451812      289.79101000    0.00000000
                                                     2        4.4916223     -152.45327730    0.00000000
                                      P - G
                                                     0      420.6158801        2.00000000    0.00000000
                                                     1      109.4417815       73.88856250    0.00000000
                                                     2       34.1714280      326.67298720    0.00000000
                                                     2        5.9879750      126.58145910    0.00000000
                                      D - G
                                                     0      219.2666158        3.00000000    0.00000000
                                                     1      122.7297786       55.67931490    0.00000000
                                                     2       63.1063369      449.19873350    0.00000000
                                                     2       18.3684520      215.02690910    0.00000000
                                                     2        4.4972844       64.08409950    0.00000000
                                      F - G
                                                     0      108.5506037        4.00000000    0.00000000
                                                     1       56.4795527       51.80653350    0.00000000
                                                     2       29.2069159      231.21831130    0.00000000
                                                     2        9.5440543      119.00473860    0.00000000
                                                     2        2.8965118       15.34241880    0.00000000
   18         17
                                   No pseudopotential on this center.
 ======================================================================================================
 There are   181 symmetry adapted cartesian basis functions of A   symmetry.
 There are   168 symmetry adapted basis functions of A   symmetry.
   168 basis functions,   332 primitive gaussians,   181 cartesian basis functions
    46 alpha electrons       46 beta electrons
       nuclear repulsion energy       661.4955676173 Hartrees.
 NAtoms=   18 NActive=   18 NUniq=   18 SFac= 1.00D+00 NAtFMM=   60 NAOKFM=F Big=F
 Integral buffers will be    131072 words long.
 Raffenetti 2 integral format.
 Two-electron integral symmetry is turned on.
 One-electron integrals computed using PRISM.
   1 Symmetry operations used in ECPInt.
 ECPInt:  NShTT=    2080 NPrTT=   10482 LenC2=    2019 LenP2D=    7308.
 LDataN:  DoStor=T MaxTD1= 7 Len=  274
 NBasis=   168 RedAO= T EigKep=  3.40D-03  NBF=   168
 NBsUse=   168 1.00D-06 EigRej= -1.00D+00 NBFU=   168
 Defaulting to unpruned grid for atomic number  79.
 ExpMin= 2.79D-02 ExpMax= 2.52D+04 ExpMxC= 3.78D+03 IAcc=3 IRadAn=         5 AccDes= 0.00D+00
 Harris functional with IExCor=  402 and IRadAn=       5 diagonalized for initial guess.
 HarFok:  IExCor=  402 AccDes= 0.00D+00 IRadAn=         5 IDoV= 1 UseB2=F ITyADJ=14
 ICtDFT=  3500011 ScaDFX=  1.000000  1.000000  1.000000  1.000000
 Defaulting to unpruned grid for atomic number  79.
 Defaulting to unpruned grid for atomic number  79.
 Defaulting to unpruned grid for atomic number  79.
 Defaulting to unpruned grid for atomic number  79.
 Defaulting to unpruned grid for atomic number  79.
 Defaulting to unpruned grid for atomic number  79.
 Defaulting to unpruned grid for atomic number  79.
 Defaulting to unpruned grid for atomic number  79.
 FoFCou: FMM=F IPFlag=           0 FMFlag=      100000 FMFlg1=           0
         NFxFlg=           0 DoJE=T BraDBF=F KetDBF=T FulRan=T
         wScrn=  0.000000 ICntrl=     500 IOpCl=  0 I1Cent=   200000004 NGrid=           0
         NMat0=    1 NMatS0=      1 NMatT0=    0 NMatD0=    1 NMtDS0=    0 NMtDT0=    0
 Petite list used in FoFCou.
 Keep R1 ints in memory in canonical form, NReq=103904134.
 Requested convergence on RMS density matrix=1.00D-08 within 128 cycles.
 Requested convergence on MAX density matrix=1.00D-06.
 Requested convergence on             energy=1.00D-06.
 No special actions if energy rises.
 Defaulting to unpruned grid for atomic number  79.
 Defaulting to unpruned grid for atomic number  79.
 Defaulting to unpruned grid for atomic number  79.
 Defaulting to unpruned grid for atomic number  79.
 Defaulting to unpruned grid for atomic number  79.
 Defaulting to unpruned grid for atomic number  79.
 Defaulting to unpruned grid for atomic number  79.
 Defaulting to unpruned grid for atomic number  79.
 SCF Done:  E(RB3LYP) =  -1190.48917827     A.U. after   13 cycles
            NFock= 13  Conv=0.25D-08     -V/T= 2.0869

 **********************************************************************

            Population analysis using the SCF density.

 **********************************************************************

 Orbital symmetries:
       Occupied  (A) (A) (A) (A) (A) (A) (A) (A) (A) (A) (A) (A)
                 (A) (A) (A) (A) (A) (A) (A) (A) (A) (A) (A) (A)
                 (A) (A) (A) (A) (A) (A) (A) (A) (A) (A) (A) (A)
                 (A) (A) (A) (A) (A) (A) (A) (A) (A) (A)
       Virtual   (A) (A) (A) (A) (A) (A) (A) (A) (A) (A) (A) (A)
                 (A) (A) (A) (A) (A) (A) (A) (A) (A) (A) (A) (A)
                 (A) (A) (A) (A) (A) (A) (A) (A) (A) (A) (A) (A)
                 (A) (A) (A) (A) (A) (A) (A) (A) (A) (A) (A) (A)
                 (A) (A) (A) (A) (A) (A) (A) (A) (A) (A) (A) (A)
                 (A) (A) (A) (A) (A) (A) (A) (A) (A) (A) (A) (A)
                 (A) (A) (A) (A) (A) (A) (A) (A) (A) (A) (A) (A)
                 (A) (A) (A) (A) (A) (A) (A) (A) (A) (A) (A) (A)
                 (A) (A) (A) (A) (A) (A) (A) (A) (A) (A) (A) (A)
                 (A) (A) (A) (A) (A) (A) (A) (A) (A) (A) (A) (A)
                 (A) (A)
 The electronic state is 1-A.
 Alpha  occ. eigenvalues -- -101.45706 -88.93206 -10.24557 -10.24553 -10.21142
 Alpha  occ. eigenvalues --  -10.21139 -10.20690  -9.38787  -8.00680  -7.14856
 Alpha  occ. eigenvalues --   -7.14265  -7.14253  -5.96959  -5.96753  -5.96252
 Alpha  occ. eigenvalues --   -4.17062  -2.31877  -2.29660  -2.29516  -0.88816
 Alpha  occ. eigenvalues --   -0.80078  -0.79757  -0.74049  -0.66781  -0.66049
 Alpha  occ. eigenvalues --   -0.59620  -0.51917  -0.49381  -0.48487  -0.47211
 Alpha  occ. eigenvalues --   -0.43923  -0.43390  -0.41981  -0.39445  -0.39347
 Alpha  occ. eigenvalues --   -0.36392  -0.35500  -0.35229  -0.33518  -0.32357
 Alpha  occ. eigenvalues --   -0.30602  -0.30588  -0.29211  -0.27160  -0.24591
 Alpha  occ. eigenvalues --   -0.24279
 Alpha virt. eigenvalues --   -0.02578  -0.01440  -0.00209   0.02808   0.03363
 Alpha virt. eigenvalues --    0.05271   0.08087   0.08377   0.09113   0.10797
 Alpha virt. eigenvalues --    0.11816   0.12211   0.13861   0.15150   0.15241
 Alpha virt. eigenvalues --    0.15436   0.17495   0.17923   0.20062   0.20541
 Alpha virt. eigenvalues --    0.22675   0.24880   0.25179   0.28492   0.33589
 Alpha virt. eigenvalues --    0.35534   0.36363   0.38310   0.38327   0.41094
 Alpha virt. eigenvalues --    0.42644   0.46475   0.50140   0.51616   0.52835
 Alpha virt. eigenvalues --    0.54563   0.55092   0.55588   0.56360   0.60605
 Alpha virt. eigenvalues --    0.61021   0.62877   0.63687   0.66330   0.68015
 Alpha virt. eigenvalues --    0.69132   0.70020   0.73825   0.76716   0.76785
 Alpha virt. eigenvalues --    0.81251   0.83472   0.83657   0.86043   0.86177
 Alpha virt. eigenvalues --    0.86527   0.88315   0.91158   0.91237   0.92545
 Alpha virt. eigenvalues --    0.93290   0.94415   0.95357   0.95616   0.98393
 Alpha virt. eigenvalues --    0.98585   1.02765   1.03736   1.04068   1.08060
 Alpha virt. eigenvalues --    1.09274   1.12999   1.15704   1.28585   1.42210
 Alpha virt. eigenvalues --    1.42976   1.47050   1.57877   1.63093   1.66585
 Alpha virt. eigenvalues --    1.67059   1.77241   1.79624   1.80768   1.84317
 Alpha virt. eigenvalues --    1.87400   1.89705   1.92596   1.94216   1.94530
 Alpha virt. eigenvalues --    1.97441   1.98622   1.98942   1.99856   2.00195
 Alpha virt. eigenvalues --    2.00202   2.00722   2.00764   2.01289   2.03679
 Alpha virt. eigenvalues --    2.06435   2.07258   2.08099   2.16008   2.16190
 Alpha virt. eigenvalues --    2.21859   2.22374   2.27413   2.29359   2.30495
 Alpha virt. eigenvalues --    2.35213   2.38012   2.38483   2.55664   2.59656
 Alpha virt. eigenvalues --    2.61105   2.64704   2.70605  15.58095  15.58554
 Alpha virt. eigenvalues --   15.66483  43.07754
          Condensed to atoms (all electrons):
               1          2          3          4          5          6
     1  C    5.024975   0.358038  -0.010471  -0.038736   0.384432  -0.039238
     2  C    0.358038   5.296478  -0.019201  -0.010486  -0.046694   0.358811
     3  C   -0.010471  -0.019201   5.296638   0.358050  -0.046706  -0.002886
     4  C   -0.038736  -0.010486   0.358050   5.025088   0.384433  -0.000846
     5  C    0.384432  -0.046694  -0.046706   0.384433   4.984321  -0.002940
     6  H   -0.039238   0.358811  -0.002886  -0.000846  -0.002940   0.550491
     7  H   -0.025326   0.376359   0.002838  -0.000078   0.004007  -0.026465
     8  H    0.382913  -0.039870  -0.000067  -0.004617  -0.033273   0.004335
     9  H    0.369959  -0.034724   0.000030   0.004612  -0.033464  -0.003789
    10  H   -0.000847  -0.002896   0.358815  -0.039258  -0.002948   0.003500
    11  H   -0.000079   0.002839   0.376362  -0.025325   0.004007  -0.000077
    12  H    0.004612   0.000031  -0.034701   0.369957  -0.033464  -0.000016
    13  H   -0.004620  -0.000067  -0.039888   0.382911  -0.033271   0.000063
    14  H   -0.042408  -0.005349  -0.005362  -0.042410   0.376373   0.004897
    15  H   -0.031892   0.005043   0.005045  -0.031899   0.379381  -0.000057
    16  S   -0.052652   0.232786   0.232709  -0.052695  -0.016880  -0.038624
    17  Au  -0.001160  -0.041396  -0.041411  -0.001171  -0.004282   0.005922
    18  Cl  -0.000029   0.000051   0.000051  -0.000029  -0.000003  -0.000001
               7          8          9         10         11         12
     1  C   -0.025326   0.382913   0.369959  -0.000847  -0.000079   0.004612
     2  C    0.376359  -0.039870  -0.034724  -0.002896   0.002839   0.000031
     3  C    0.002838  -0.000067   0.000030   0.358815   0.376362  -0.034701
     4  C   -0.000078  -0.004617   0.004612  -0.039258  -0.025325   0.369957
     5  C    0.004007  -0.033273  -0.033464  -0.002948   0.004007  -0.033464
     6  H   -0.026465   0.004335  -0.003789   0.003500  -0.000077  -0.000016
     7  H    0.502740  -0.002989  -0.003532  -0.000077  -0.000058   0.000010
     8  H   -0.002989   0.512396  -0.029315   0.000064  -0.000016  -0.000024
     9  H   -0.003532  -0.029315   0.571924  -0.000017   0.000010  -0.000121
    10  H   -0.000077   0.000064  -0.000017   0.550525  -0.026474  -0.003776
    11  H   -0.000058  -0.000016   0.000010  -0.026474   0.502763  -0.003541
    12  H    0.000010  -0.000024  -0.000121  -0.003776  -0.003541   0.571894
    13  H   -0.000016   0.002310  -0.000024   0.004335  -0.002978  -0.029306
    14  H   -0.000035   0.004993  -0.004139   0.004908  -0.000035  -0.004135
    15  H   -0.000120  -0.003812  -0.003415  -0.000056  -0.000120  -0.003416
    16  S   -0.039434  -0.009860   0.006385  -0.038628  -0.039445   0.006387
    17  Au  -0.004415   0.011938  -0.000534   0.005927  -0.004421  -0.000531
    18  Cl  -0.000017  -0.000179   0.000000  -0.000001  -0.000017   0.000000
              13         14         15         16         17         18
     1  C   -0.004620  -0.042408  -0.031892  -0.052652  -0.001160  -0.000029
     2  C   -0.000067  -0.005349   0.005043   0.232786  -0.041396   0.000051
     3  C   -0.039888  -0.005362   0.005045   0.232709  -0.041411   0.000051
     4  C    0.382911  -0.042410  -0.031899  -0.052695  -0.001171  -0.000029
     5  C   -0.033271   0.376373   0.379381  -0.016880  -0.004282  -0.000003
     6  H    0.000063   0.004897  -0.000057  -0.038624   0.005922  -0.000001
     7  H   -0.000016  -0.000035  -0.000120  -0.039434  -0.004415  -0.000017
     8  H    0.002310   0.004993  -0.003812  -0.009860   0.011938  -0.000179
     9  H   -0.000024  -0.004139  -0.003415   0.006385  -0.000534   0.000000
    10  H    0.004335   0.004908  -0.000056  -0.038628   0.005927  -0.000001
    11  H   -0.002978  -0.000035  -0.000120  -0.039445  -0.004421  -0.000017
    12  H   -0.029306  -0.004135  -0.003416   0.006387  -0.000531   0.000000
    13  H    0.512349   0.004993  -0.003808  -0.009888   0.011961  -0.000179
    14  H    0.004993   0.606085  -0.033554  -0.001294   0.000662   0.000000
    15  H   -0.003808  -0.033554   0.563523  -0.000084   0.000019   0.000000
    16  S   -0.009888  -0.001294  -0.000084  15.413297   0.224743  -0.003898
    17  Au   0.011961   0.000662   0.000019   0.224743  18.550287   0.249420
    18  Cl  -0.000179   0.000000   0.000000  -0.003898   0.249420  17.135309
 Mulliken charges:
               1
     1  C   -0.277472
     2  C   -0.429754
     3  C   -0.429846
     4  C   -0.277499
     5  C   -0.263029
     6  H    0.186919
     7  H    0.216608
     8  H    0.205073
     9  H    0.160152
    10  H    0.186905
    11  H    0.216604
    12  H    0.160142
    13  H    0.205124
    14  H    0.135810
    15  H    0.159224
    16  S    0.187075
    17  Au   0.038443
    18  Cl  -0.380478
 Sum of Mulliken charges =   0.00000
 Mulliken charges with hydrogens summed into heavy atoms:
               1
     1  C    0.087752
     2  C   -0.026227
     3  C   -0.026338
     4  C    0.087767
     5  C    0.032005
    16  S    0.187075
    17  Au   0.038443
    18  Cl  -0.380478
 Electronic spatial extent (au):  <R**2>=           2266.4150
 Charge=              0.0000 electrons
 Dipole moment (field-independent basis, Debye):
    X=              9.2711    Y=             -1.1838    Z=              0.0003  Tot=              9.3464
 Quadrupole moment (field-independent basis, Debye-Ang):
   XX=            -85.9000   YY=            -82.4712   ZZ=            -76.3026
   XY=              4.0010   XZ=              0.0002   YZ=              0.0012
 Traceless Quadrupole moment (field-independent basis, Debye-Ang):
   XX=             -4.3421   YY=             -0.9133   ZZ=              5.2553
   XY=              4.0010   XZ=              0.0002   YZ=              0.0012
 Octapole moment (field-independent basis, Debye-Ang**2):
  XXX=            -33.6958  YYY=            -14.6701  ZZZ=              0.0077  XYY=            -26.6678
  XXY=            -17.3924  XXZ=              0.0071  XZZ=            -21.6798  YZZ=             -9.9649
  YYZ=              0.0012  XYZ=              0.0009
 Hexadecapole moment (field-independent basis, Debye-Ang**3):
 XXXX=          -2237.6137 YYYY=           -484.3239 ZZZZ=           -399.5580 XXXY=             28.1624
 XXXZ=              0.0068 YYYX=             27.6625 YYYZ=              0.0018 ZZZX=             -0.0117
 ZZZY=              0.0034 XXYY=           -442.4446 XXZZ=           -418.4268 YYZZ=           -144.7500
 XXYZ=              0.0001 YYXZ=             -0.0052 ZZXY=              3.1121
 N-N= 6.614955676173D+02 E-N=-4.099217683877D+03  KE= 1.095315701174D+03
   1 Symmetry operations used in ECPInt.
 ECPInt:  NShTT=    2080 NPrTT=   10482 LenC2=    2019 LenP2D=    7308.
 LDataN:  DoStor=T MaxTD1= 8 Len=  415
 Calling FoFJK, ICntrl=      2127 FMM=F ISym2X=0 I1Cent= 0 IOpClX= 0 NMat=1 NMatS=1 NMatT=0.
 Defaulting to unpruned grid for atomic number  79.
 Defaulting to unpruned grid for atomic number  79.
 Defaulting to unpruned grid for atomic number  79.
 Defaulting to unpruned grid for atomic number  79.
 Defaulting to unpruned grid for atomic number  79.
 Defaulting to unpruned grid for atomic number  79.
 Defaulting to unpruned grid for atomic number  79.
 Defaulting to unpruned grid for atomic number  79.
 ***** Axes restored to original set *****
 -------------------------------------------------------------------
 Center     Atomic                   Forces (Hartrees/Bohr)
 Number     Number              X              Y              Z
 -------------------------------------------------------------------
      1        6          -0.000858890    0.003301028    0.004682254
      2        6           0.003933143   -0.001682119    0.004954646
      3        6           0.004072262   -0.001583026   -0.005141683
      4        6          -0.000876859    0.003277985   -0.004662174
      5        6           0.003223779    0.002669665   -0.000004534
      6        1           0.001173363    0.000309807    0.001689634
      7        1           0.000363444    0.000148259    0.000950924
      8        1           0.000149180   -0.000032282    0.000220036
      9        1           0.000289855    0.000854539    0.000705027
     10        1           0.001171767    0.000305044   -0.001686400
     11        1           0.000346504    0.000155087   -0.000941426
     12        1           0.000289941    0.000845065   -0.000709898
     13        1           0.000157261   -0.000017991   -0.000230757
     14        1           0.001133410    0.000085254    0.000003369
     15        1           0.000420588    0.000574227    0.000002372
     16       16          -0.006510136   -0.012241761    0.000175209
     17       79          -0.013390566    0.004733912   -0.000010795
     18       17           0.004911953   -0.001702695    0.000004196
 -------------------------------------------------------------------
 Cartesian Forces:  Max     0.013390566 RMS     0.003358260

 GradGradGradGradGradGradGradGradGradGradGradGradGradGradGradGradGradGrad
 Berny optimization.
 FormGI is forming the generalized inverse of G from B-inverse, IUseBI=4.
 Internal  Forces:  Max     0.012127466 RMS     0.002371402
 Search for a local minimum.
 Step number   1 out of a maximum of  108
 All quantities printed in internal units (Hartrees-Bohrs-Radians)
 Mixed Optimization -- RFO/linear search
 Second derivative matrix not updated -- first step.
 ITU=  0
     Eigenvalues ---    0.00230   0.00230   0.00515   0.00659   0.00714
     Eigenvalues ---    0.02064   0.02355   0.03891   0.04156   0.04265
     Eigenvalues ---    0.04829   0.04867   0.05170   0.05667   0.05686
     Eigenvalues ---    0.06668   0.06834   0.08206   0.08428   0.08437
     Eigenvalues ---    0.08438   0.08773   0.09641   0.09644   0.12300
     Eigenvalues ---    0.12573   0.12880   0.16229   0.16447   0.20368
     Eigenvalues ---    0.21259   0.22412   0.24323   0.24722   0.28972
     Eigenvalues ---    0.29114   0.29222   0.30324   0.33810   0.33939
     Eigenvalues ---    0.33940   0.34056   0.34058   0.34139   0.34141
     Eigenvalues ---    0.34234   0.34519   0.34521
 RFO step:  Lambda=-3.37905104D-03 EMin= 2.30000000D-03
 Linear search not attempted -- first point.
 Maximum step size (   0.300) exceeded in Quadratic search.
    -- Step size scaled by   0.696
 Iteration  1 RMS(Cart)=  0.06733470 RMS(Int)=  0.01018590
 Iteration  2 RMS(Cart)=  0.02816439 RMS(Int)=  0.00091498
 Iteration  3 RMS(Cart)=  0.00087341 RMS(Int)=  0.00001490
 Iteration  4 RMS(Cart)=  0.00000055 RMS(Int)=  0.00001489
 Variable       Old X    -DE/DX   Delta X   Delta X   Delta X     New X
                                 (Linear)    (Quad)   (Total)
    R1        2.87312   0.00596   0.00000   0.01351   0.01351   2.88663
    R2        2.88619   0.00574   0.00000   0.01349   0.01348   2.89967
    R3        2.07432  -0.00014   0.00000  -0.00028  -0.00028   2.07404
    R4        2.07236   0.00096   0.00000   0.00194   0.00194   2.07430
    R5        2.07094   0.00086   0.00000   0.00174   0.00174   2.07268
    R6        2.06460   0.00056   0.00000   0.00112   0.00112   2.06572
    R7        3.43428   0.01192   0.00000   0.03275   0.03276   3.46704
    R8        2.87324   0.00593   0.00000   0.01348   0.01348   2.88673
    R9        2.07097   0.00086   0.00000   0.00174   0.00174   2.07271
   R10        2.06463   0.00056   0.00000   0.00112   0.00112   2.06574
   R11        3.43302   0.01213   0.00000   0.03329   0.03330   3.46632
   R12        2.88618   0.00573   0.00000   0.01349   0.01348   2.89966
   R13        2.07233   0.00096   0.00000   0.00195   0.00195   2.07427
   R14        2.07433  -0.00014   0.00000  -0.00028  -0.00028   2.07405
   R15        2.07651   0.00100   0.00000   0.00203   0.00203   2.07854
   R16        2.06936   0.00063   0.00000   0.00126   0.00126   2.07062
   R17        4.33145   0.00892   0.00000   0.02873   0.02873   4.36018
   R18        4.36041  -0.00517   0.00000  -0.01736  -0.01736   4.34305
    A1        1.97338   0.00009   0.00000   0.00192   0.00191   1.97529
    A2        1.90483  -0.00027   0.00000  -0.00195  -0.00194   1.90289
    A3        1.87749   0.00048   0.00000   0.00369   0.00369   1.88118
    A4        1.92218   0.00016   0.00000  -0.00128  -0.00127   1.92090
    A5        1.91513  -0.00030   0.00000   0.00003   0.00002   1.91515
    A6        1.86737  -0.00017   0.00000  -0.00257  -0.00257   1.86480
    A7        1.94754  -0.00109   0.00000  -0.00514  -0.00520   1.94234
    A8        1.96208  -0.00044   0.00000  -0.00481  -0.00483   1.95725
    A9        1.98228   0.00082   0.00000   0.00495   0.00495   1.98724
   A10        1.88913  -0.00018   0.00000  -0.00598  -0.00603   1.88310
   A11        1.83678   0.00108   0.00000   0.00955   0.00955   1.84633
   A12        1.83757  -0.00008   0.00000   0.00221   0.00223   1.83979
   A13        1.94731  -0.00108   0.00000  -0.00510  -0.00515   1.94215
   A14        1.96205  -0.00044   0.00000  -0.00483  -0.00486   1.95719
   A15        1.98235   0.00080   0.00000   0.00495   0.00496   1.98731
   A16        1.88885  -0.00017   0.00000  -0.00591  -0.00596   1.88289
   A17        1.83698   0.00108   0.00000   0.00950   0.00950   1.84648
   A18        1.83787  -0.00007   0.00000   0.00216   0.00218   1.84005
   A19        1.97315   0.00007   0.00000   0.00198   0.00196   1.97511
   A20        1.87772   0.00047   0.00000   0.00362   0.00362   1.88134
   A21        1.90468  -0.00025   0.00000  -0.00189  -0.00188   1.90280
   A22        1.91515  -0.00028   0.00000   0.00006   0.00006   1.91521
   A23        1.92221   0.00016   0.00000  -0.00131  -0.00131   1.92090
   A24        1.86748  -0.00018   0.00000  -0.00262  -0.00262   1.86486
   A25        1.97500   0.00084   0.00000   0.00286   0.00282   1.97783
   A26        1.90710  -0.00025   0.00000   0.00044   0.00045   1.90755
   A27        1.90578  -0.00015   0.00000  -0.00041  -0.00040   1.90538
   A28        1.90701  -0.00024   0.00000   0.00049   0.00050   1.90751
   A29        1.90580  -0.00014   0.00000  -0.00040  -0.00039   1.90541
   A30        1.85960  -0.00011   0.00000  -0.00337  -0.00337   1.85622
   A31        1.73131  -0.00251   0.00000  -0.00734  -0.00732   1.72399
   A32        1.86138   0.00098   0.00000   0.00563   0.00564   1.86702
   A33        1.86159   0.00097   0.00000   0.00560   0.00562   1.86721
   A34        3.17839  -0.00213   0.00000  -0.26130  -0.26130   2.91709
   A35        3.11965   0.00107   0.00000   0.13052   0.13052   3.25016
    D1        1.04898   0.00076   0.00000   0.01437   0.01435   1.06333
    D2       -3.10795  -0.00059   0.00000  -0.00063  -0.00061  -3.10856
    D3       -1.02371  -0.00043   0.00000   0.00229   0.00230  -1.02140
    D4       -3.08848   0.00083   0.00000   0.01262   0.01260  -3.07588
    D5       -0.96223  -0.00052   0.00000  -0.00238  -0.00236  -0.96459
    D6        1.12202  -0.00035   0.00000   0.00055   0.00055   1.12257
    D7       -1.06834   0.00075   0.00000   0.01057   0.01055  -1.05779
    D8        1.05792  -0.00060   0.00000  -0.00443  -0.00442   1.05350
    D9       -3.14102  -0.00044   0.00000  -0.00151  -0.00150   3.14066
   D10        1.04271  -0.00035   0.00000  -0.00382  -0.00382   1.03889
   D11       -1.08629  -0.00043   0.00000  -0.00671  -0.00671  -1.09300
   D12       -3.11397  -0.00008   0.00000  -0.00269  -0.00270  -3.11667
   D13       -1.09335  -0.00019   0.00000  -0.00171  -0.00171  -1.09506
   D14        3.06083  -0.00027   0.00000  -0.00460  -0.00460   3.05623
   D15        1.03315   0.00009   0.00000  -0.00058  -0.00058   1.03256
   D16        3.13863   0.00011   0.00000   0.00217   0.00216   3.14079
   D17        1.00963   0.00003   0.00000  -0.00072  -0.00072   1.00891
   D18       -1.01806   0.00038   0.00000   0.00330   0.00329  -1.01476
   D19        0.88468   0.00001   0.00000  -0.00548  -0.00547   0.87921
   D20       -1.04537  -0.00036   0.00000  -0.01036  -0.01035  -1.05571
   D21       -1.25053   0.00014   0.00000  -0.00863  -0.00864  -1.25917
   D22        3.10261  -0.00024   0.00000  -0.01351  -0.01352   3.08909
   D23        3.03860  -0.00009   0.00000  -0.00691  -0.00690   3.03170
   D24        1.10855  -0.00047   0.00000  -0.01179  -0.01178   1.09677
   D25       -1.04824  -0.00076   0.00000  -0.01471  -0.01470  -1.06294
   D26        1.06912  -0.00074   0.00000  -0.01089  -0.01087   1.05825
   D27        3.08945  -0.00083   0.00000  -0.01301  -0.01299   3.07646
   D28        3.10925   0.00057   0.00000   0.00018   0.00015   3.10941
   D29       -1.05658   0.00059   0.00000   0.00400   0.00399  -1.05259
   D30        0.96376   0.00050   0.00000   0.00188   0.00187   0.96562
   D31        1.02459   0.00041   0.00000  -0.00267  -0.00268   1.02191
   D32       -3.14124   0.00043   0.00000   0.00116   0.00115  -3.14009
   D33       -1.12091   0.00034   0.00000  -0.00096  -0.00097  -1.12188
   D34       -0.88509  -0.00002   0.00000   0.00564   0.00562  -0.87947
   D35        1.04478   0.00036   0.00000   0.01054   0.01052   1.05530
   D36        1.25000  -0.00014   0.00000   0.00881   0.00882   1.25882
   D37       -3.10331   0.00024   0.00000   0.01370   0.01372  -3.08959
   D38       -3.03922   0.00009   0.00000   0.00712   0.00711  -3.03211
   D39       -1.10935   0.00047   0.00000   0.01202   0.01201  -1.09734
   D40       -1.04300   0.00035   0.00000   0.00397   0.00397  -1.03903
   D41        1.08606   0.00043   0.00000   0.00683   0.00683   1.09289
   D42        3.11370   0.00007   0.00000   0.00284   0.00285   3.11655
   D43       -3.13908  -0.00010   0.00000  -0.00198  -0.00198  -3.14106
   D44       -1.01002  -0.00003   0.00000   0.00088   0.00087  -1.00915
   D45        1.01762  -0.00038   0.00000  -0.00311  -0.00311   1.01452
   D46        1.09274   0.00019   0.00000   0.00195   0.00195   1.09469
   D47       -3.06139   0.00027   0.00000   0.00481   0.00481  -3.05658
   D48       -1.03375  -0.00008   0.00000   0.00083   0.00083  -1.03292
         Item               Value     Threshold  Converged?
 Maximum Force            0.012127     0.000450     NO 
 RMS     Force            0.002371     0.000300     NO 
 Maximum Displacement     0.559570     0.001800     NO 
 RMS     Displacement     0.092379     0.001200     NO 
 Predicted change in Energy=-1.688842D-03
 GradGradGradGradGradGradGradGradGradGradGradGradGradGradGradGradGradGrad

                          Input orientation:                          
 ---------------------------------------------------------------------
 Center     Atomic      Atomic             Coordinates (Angstroms)
 Number     Number       Type             X           Y           Z
 ---------------------------------------------------------------------
      1          6           0        2.327523    0.956938    1.282616
      2          6           0        2.152799   -0.556537    1.393248
      3          6           0        2.149337   -0.555895   -1.392030
      4          6           0        2.324069    0.957617   -1.281212
      5          6           0        3.050090    1.389241   -0.000162
      6          1           0        3.122265   -1.069296    1.407851
      7          1           0        1.607478   -0.843417    2.296165
      8          1           0        1.341683    1.436018    1.339071
      9          1           0        2.895571    1.293820    2.159382
     10          1           0        3.118967   -1.068308   -1.409105
     11          1           0        1.602319   -0.842488   -2.294028
     12          1           0        2.889561    1.295167   -2.159354
     13          1           0        1.337926    1.436431   -1.334562
     14          1           0        4.068219    0.973036   -0.001672
     15          1           0        3.162354    2.479202   -0.000005
     16         16           0        1.216254   -1.299201    0.001348
     17         79           0       -0.877096   -0.328869    0.004351
     18         17           0       -2.662631    1.118021   -0.012940
 ---------------------------------------------------------------------
                    Distance matrix (angstroms):
                    1          2          3          4          5
     1  C    0.000000
     2  C    1.527539   0.000000
     3  C    3.078010   2.785280   0.000000
     4  C    2.563830   3.078105   1.527590   0.000000
     5  C    1.534441   2.555929   2.555819   1.534436   0.000000
     6  H    2.180120   1.096813   3.008239   3.460716   2.834099
     7  H    2.187927   1.093131   3.738859   4.068765   3.512693
     8  H    1.097537   2.152004   3.475477   2.838985   2.171265
     9  H    1.097673   2.135999   4.073186   3.503902   2.167167
    10  H    3.460255   3.008084   1.096832   2.180043   2.833621
    11  H    4.068936   3.739091   1.093144   2.187944   3.512617
    12  H    3.503918   4.073402   2.136153   1.097659   2.167194
    13  H    2.838810   3.475182   2.151989   1.097538   2.171257
    14  H    2.163256   2.820324   2.820077   2.163219   1.099916
    15  H    2.158552   3.489422   3.489377   2.158572   1.095727
    16  S    2.822539   1.834680   1.834298   2.822311   3.254332
    17  Au   3.681963   3.340829   3.340766   3.681736   4.286574
    18  Cl   5.158106   5.288655   5.278155   5.147953   5.719169
                    6          7          8          9         10
     6  H    0.000000
     7  H    1.770509   0.000000
     8  H    3.074379   2.486463   0.000000
     9  H    2.490082   2.499134   1.762867   0.000000
    10  H    2.816958   4.008017   4.121026   4.285283   0.000000
    11  H    4.008190   4.590196   4.296386   5.105798   1.770397
    12  H    4.285999   5.105774   3.828152   4.318740   2.490284
    13  H    4.121088   4.295643   2.673636   3.828086   3.074310
    14  H    2.655693   3.825545   3.073426   2.479548   2.655001
    15  H    3.817788   4.327798   2.489217   2.477752   3.817364
    16  S    2.379913   2.372126   3.047402   3.768418   2.379706
    17  Au   4.302666   3.419106   3.133574   4.637919   4.302690
    18  Cl   6.345709   5.235746   4.238347   5.970217   6.336890
                   11         12         13         14         15
    11  H    0.000000
    12  H    2.498940   0.000000
    13  H    2.486755   1.762898   0.000000
    14  H    3.825138   2.479636   3.073407   0.000000
    15  H    4.327803   2.477729   2.489368   1.757593   0.000000
    16  S    2.372000   3.768200   3.046825   3.646473   4.250133
    17  Au   3.419627   4.637544   3.132937   5.113818   4.919598
    18  Cl   5.218884   5.955276   4.225225   6.732420   5.981925
                   16         17         18
    16  S    0.000000
    17  Au   2.307308   0.000000
    18  Cl   4.570439   2.298243   0.000000
 Stoichiometry    C5H10AuClS
 Framework group  C1[X(C5H10AuClS)]
 Deg. of freedom    48
 Full point group                 C1      NOp   1
 Largest Abelian subgroup         C1      NOp   1
 Largest concise Abelian subgroup C1      NOp   1
                         Standard orientation:                         
 ---------------------------------------------------------------------
 Center     Atomic      Atomic             Coordinates (Angstroms)
 Number     Number       Type             X           Y           Z
 ---------------------------------------------------------------------
      1          6           0        2.311162    1.012663    1.291891
      2          6           0        2.142711   -0.502794    1.383486
      3          6           0        2.136106   -0.466814   -1.401555
      4          6           0        2.304815    1.045869   -1.271716
      5          6           0        3.030520    1.464154    0.013929
      6          1           0        3.114267   -1.011742    1.390534
      7          1           0        1.599578   -0.803331    2.283274
      8          1           0        1.323448    1.486967    1.355485
      9          1           0        2.878825    1.340701    2.172252
     10          1           0        3.107789   -0.975013   -1.426177
     11          1           0        1.589240   -0.744162   -2.306530
     12          1           0        2.867941    1.396840   -2.146109
     13          1           0        1.316676    1.521300   -1.317922
     14          1           0        4.050329    1.052154    0.006039
     15          1           0        3.138357    2.554474    0.027804
     16         16           0        1.207621   -1.231541   -0.016724
     17         79           0       -0.889648   -0.269864    0.000851
     18         17           0       -2.681062    1.169840    0.003854
 ---------------------------------------------------------------------
 Rotational constants (GHZ):      1.6877558      0.5181808      0.4824488
 Basis read from rwf:  (5D, 7F)
 Pseudo-potential data read from rwf file.
 There are   181 symmetry adapted cartesian basis functions of A   symmetry.
 There are   168 symmetry adapted basis functions of A   symmetry.
   168 basis functions,   332 primitive gaussians,   181 cartesian basis functions
    46 alpha electrons       46 beta electrons
       nuclear repulsion energy       661.2547292573 Hartrees.
 NAtoms=   18 NActive=   18 NUniq=   18 SFac= 1.00D+00 NAtFMM=   60 NAOKFM=F Big=F
 Integral buffers will be    131072 words long.
 Raffenetti 2 integral format.
 Two-electron integral symmetry is turned on.
 One-electron integrals computed using PRISM.
   1 Symmetry operations used in ECPInt.
 ECPInt:  NShTT=    2080 NPrTT=   10482 LenC2=    2024 LenP2D=    7326.
 LDataN:  DoStor=T MaxTD1= 7 Len=  274
 NBasis=   168 RedAO= T EigKep=  3.74D-03  NBF=   168
 NBsUse=   168 1.00D-06 EigRej= -1.00D+00 NBFU=   168
 Defaulting to unpruned grid for atomic number  79.
 Initial guess from the checkpoint file:  "/home/scr/guest2/Gau-4994.chk"
 B after Tr=     0.000000    0.000000    0.000000
         Rot=    0.999974   -0.005647   -0.000272    0.004429 Ang=  -0.82 deg.
 ExpMin= 2.79D-02 ExpMax= 2.52D+04 ExpMxC= 3.78D+03 IAcc=3 IRadAn=         5 AccDes= 0.00D+00
 Harris functional with IExCor=  402 and IRadAn=       5 diagonalized for initial guess.
 HarFok:  IExCor=  402 AccDes= 0.00D+00 IRadAn=         5 IDoV= 1 UseB2=F ITyADJ=14
 ICtDFT=  3500011 ScaDFX=  1.000000  1.000000  1.000000  1.000000
 Defaulting to unpruned grid for atomic number  79.
 Defaulting to unpruned grid for atomic number  79.
 Defaulting to unpruned grid for atomic number  79.
 Defaulting to unpruned grid for atomic number  79.
 Defaulting to unpruned grid for atomic number  79.
 Defaulting to unpruned grid for atomic number  79.
 Defaulting to unpruned grid for atomic number  79.
 Defaulting to unpruned grid for atomic number  79.
 FoFCou: FMM=F IPFlag=           0 FMFlag=      100000 FMFlg1=           0
         NFxFlg=           0 DoJE=T BraDBF=F KetDBF=T FulRan=T
         wScrn=  0.000000 ICntrl=     500 IOpCl=  0 I1Cent=   200000004 NGrid=           0
         NMat0=    1 NMatS0=      1 NMatT0=    0 NMatD0=    1 NMtDS0=    0 NMtDT0=    0
 Petite list used in FoFCou.
 Keep R1 ints in memory in canonical form, NReq=103904134.
 Requested convergence on RMS density matrix=1.00D-08 within 128 cycles.
 Requested convergence on MAX density matrix=1.00D-06.
 Requested convergence on             energy=1.00D-06.
 No special actions if energy rises.
 Defaulting to unpruned grid for atomic number  79.
 Defaulting to unpruned grid for atomic number  79.
 Defaulting to unpruned grid for atomic number  79.
 Defaulting to unpruned grid for atomic number  79.
 Defaulting to unpruned grid for atomic number  79.
 Defaulting to unpruned grid for atomic number  79.
 Defaulting to unpruned grid for atomic number  79.
 Defaulting to unpruned grid for atomic number  79.
 SCF Done:  E(RB3LYP) =  -1190.48691494     A.U. after   11 cycles
            NFock= 11  Conv=0.50D-08     -V/T= 2.0870
   1 Symmetry operations used in ECPInt.
 ECPInt:  NShTT=    2080 NPrTT=   10482 LenC2=    2024 LenP2D=    7326.
 LDataN:  DoStor=T MaxTD1= 8 Len=  415
 Calling FoFJK, ICntrl=      2127 FMM=F ISym2X=0 I1Cent= 0 IOpClX= 0 NMat=1 NMatS=1 NMatT=0.
 Defaulting to unpruned grid for atomic number  79.
 Defaulting to unpruned grid for atomic number  79.
 Defaulting to unpruned grid for atomic number  79.
 Defaulting to unpruned grid for atomic number  79.
 Defaulting to unpruned grid for atomic number  79.
 Defaulting to unpruned grid for atomic number  79.
 Defaulting to unpruned grid for atomic number  79.
 Defaulting to unpruned grid for atomic number  79.
 ***** Axes restored to original set *****
 -------------------------------------------------------------------
 Center     Atomic                   Forces (Hartrees/Bohr)
 Number     Number              X              Y              Z
 -------------------------------------------------------------------
      1        6          -0.001452245    0.001270186    0.000968090
      2        6           0.001729054    0.001251455    0.003370710
      3        6           0.001690323    0.001448351   -0.003498857
      4        6          -0.001490563    0.001243697   -0.000986408
      5        6           0.001386484    0.000625079   -0.000016406
      6        1          -0.000198309   -0.000255121   -0.000311264
      7        1          -0.000170698    0.000177509    0.000134140
      8        1           0.000231091    0.000067196   -0.000036541
      9        1           0.000187634   -0.000077539    0.000075872
     10        1          -0.000224718   -0.000281848    0.000370656
     11        1          -0.000190596    0.000181224   -0.000126073
     12        1           0.000189815   -0.000083833   -0.000077577
     13        1           0.000258753    0.000112756    0.000028083
     14        1           0.000351525   -0.000061817   -0.000006230
     15        1          -0.000112884    0.000131777    0.000000594
     16       16           0.000635338   -0.014799619    0.000359224
     17       79          -0.000139487    0.013954198   -0.000428721
     18       17          -0.002680514   -0.004903650    0.000180708
 -------------------------------------------------------------------
 Cartesian Forces:  Max     0.014799619 RMS     0.003017242

 GradGradGradGradGradGradGradGradGradGradGradGradGradGradGradGradGradGrad
 Berny optimization.
 Using GEDIIS/GDIIS optimizer.
 FormGI is forming the generalized inverse of G from B-inverse, IUseBI=4.
 Internal  Forces:  Max     0.021854685 RMS     0.002574911
 Search for a local minimum.
 Step number   2 out of a maximum of  108
 All quantities printed in internal units (Hartrees-Bohrs-Radians)
 Mixed Optimization -- RFO/linear search
 Update second derivatives using D2CorX and points    2    1
 DE=  2.26D-03 DEPred=-1.69D-03 R=-1.34D+00
 Trust test=-1.34D+00 RLast= 3.04D-01 DXMaxT set to 1.50D-01
 ITU= -1  0
 Use linear search instead of GDIIS.
 Energy rises -- skip Quadratic/GDIIS search.
 Quartic linear search produced a step of -0.75892.
 Iteration  1 RMS(Cart)=  0.06494647 RMS(Int)=  0.00633743
 Iteration  2 RMS(Cart)=  0.00899519 RMS(Int)=  0.00008443
 Iteration  3 RMS(Cart)=  0.00013414 RMS(Int)=  0.00000272
 Iteration  4 RMS(Cart)=  0.00000002 RMS(Int)=  0.00000272
 Variable       Old X    -DE/DX   Delta X   Delta X   Delta X     New X
                                 (Linear)    (Quad)   (Total)
    R1        2.88663   0.00162  -0.01026   0.00000  -0.01026   2.87637
    R2        2.89967   0.00155  -0.01023   0.00000  -0.01023   2.88944
    R3        2.07404  -0.00018   0.00021   0.00000   0.00021   2.07425
    R4        2.07430   0.00013  -0.00147   0.00000  -0.00147   2.07283
    R5        2.07268  -0.00006  -0.00132   0.00000  -0.00132   2.07135
    R6        2.06572   0.00015  -0.00085   0.00000  -0.00085   2.06487
    R7        3.46704   0.00394  -0.02486   0.00000  -0.02486   3.44218
    R8        2.88673   0.00154  -0.01023   0.00000  -0.01023   2.87649
    R9        2.07271  -0.00007  -0.00132   0.00000  -0.00132   2.07139
   R10        2.06574   0.00015  -0.00085   0.00000  -0.00085   2.06490
   R11        3.46632   0.00403  -0.02527   0.00000  -0.02528   3.44104
   R12        2.89966   0.00153  -0.01023   0.00000  -0.01023   2.88943
   R13        2.07427   0.00013  -0.00148   0.00000  -0.00148   2.07280
   R14        2.07405  -0.00023   0.00021   0.00000   0.00021   2.07426
   R15        2.07854   0.00034  -0.00154   0.00000  -0.00154   2.07700
   R16        2.07062   0.00012  -0.00096   0.00000  -0.00096   2.06967
   R17        4.36018   0.00641  -0.02180   0.00000  -0.02180   4.33838
   R18        4.34305  -0.00101   0.01318   0.00000   0.01318   4.35623
    A1        1.97529   0.00032  -0.00145   0.00000  -0.00144   1.97384
    A2        1.90289   0.00011   0.00147   0.00000   0.00147   1.90436
    A3        1.88118  -0.00025  -0.00280   0.00000  -0.00280   1.87838
    A4        1.92090  -0.00023   0.00097   0.00000   0.00097   1.92187
    A5        1.91515  -0.00004  -0.00002   0.00000  -0.00002   1.91514
    A6        1.86480   0.00008   0.00195   0.00000   0.00195   1.86675
    A7        1.94234   0.00037   0.00394   0.00000   0.00395   1.94630
    A8        1.95725  -0.00029   0.00367   0.00000   0.00367   1.96092
    A9        1.98724   0.00008  -0.00376   0.00000  -0.00376   1.98348
   A10        1.88310   0.00008   0.00457   0.00000   0.00458   1.88768
   A11        1.84633  -0.00044  -0.00725   0.00000  -0.00725   1.83908
   A12        1.83979   0.00018  -0.00169   0.00000  -0.00169   1.83810
   A13        1.94215   0.00037   0.00391   0.00000   0.00392   1.94607
   A14        1.95719  -0.00029   0.00369   0.00000   0.00369   1.96089
   A15        1.98731   0.00014  -0.00376   0.00000  -0.00376   1.98354
   A16        1.88289   0.00010   0.00452   0.00000   0.00453   1.88742
   A17        1.84648  -0.00050  -0.00721   0.00000  -0.00721   1.83927
   A18        1.84005   0.00016  -0.00165   0.00000  -0.00165   1.83839
   A19        1.97511   0.00028  -0.00149   0.00000  -0.00149   1.97362
   A20        1.88134  -0.00022  -0.00275   0.00000  -0.00275   1.87859
   A21        1.90280   0.00012   0.00143   0.00000   0.00143   1.90423
   A22        1.91521  -0.00004  -0.00004   0.00000  -0.00004   1.91517
   A23        1.92090  -0.00022   0.00099   0.00000   0.00099   1.92189
   A24        1.86486   0.00007   0.00199   0.00000   0.00199   1.86685
   A25        1.97783   0.00007  -0.00214   0.00000  -0.00214   1.97569
   A26        1.90755   0.00005  -0.00034   0.00000  -0.00034   1.90721
   A27        1.90538  -0.00009   0.00030   0.00000   0.00030   1.90568
   A28        1.90751   0.00007  -0.00038   0.00000  -0.00038   1.90713
   A29        1.90541  -0.00011   0.00029   0.00000   0.00029   1.90571
   A30        1.85622   0.00002   0.00256   0.00000   0.00256   1.85879
   A31        1.72399  -0.00039   0.00555   0.00000   0.00555   1.72954
   A32        1.86702  -0.00119  -0.00428   0.00000  -0.00428   1.86274
   A33        1.86721  -0.00133  -0.00426   0.00000  -0.00427   1.86294
   A34        2.91709   0.02185   0.19831   0.00000   0.19831   3.11539
   A35        3.25016  -0.00961  -0.09905   0.00000  -0.09905   3.15111
    D1        1.06333  -0.00010  -0.01089   0.00000  -0.01089   1.05244
    D2       -3.10856   0.00007   0.00046   0.00000   0.00046  -3.10810
    D3       -1.02140   0.00014  -0.00175   0.00000  -0.00175  -1.02315
    D4       -3.07588  -0.00009  -0.00957   0.00000  -0.00956  -3.08544
    D5       -0.96459   0.00008   0.00179   0.00000   0.00179  -0.96280
    D6        1.12257   0.00015  -0.00042   0.00000  -0.00042   1.12215
    D7       -1.05779  -0.00008  -0.00800   0.00000  -0.00800  -1.06579
    D8        1.05350   0.00009   0.00335   0.00000   0.00335   1.05685
    D9        3.14066   0.00016   0.00114   0.00000   0.00114  -3.14139
   D10        1.03889   0.00026   0.00290   0.00000   0.00290   1.04179
   D11       -1.09300   0.00009   0.00509   0.00000   0.00509  -1.08791
   D12       -3.11667   0.00009   0.00205   0.00000   0.00205  -3.11462
   D13       -1.09506   0.00006   0.00130   0.00000   0.00130  -1.09377
   D14        3.05623  -0.00010   0.00349   0.00000   0.00349   3.05972
   D15        1.03256  -0.00011   0.00044   0.00000   0.00044   1.03301
   D16        3.14079   0.00013  -0.00164   0.00000  -0.00164   3.13915
   D17        1.00891  -0.00004   0.00055   0.00000   0.00055   1.00945
   D18       -1.01476  -0.00004  -0.00250   0.00000  -0.00250  -1.01726
   D19        0.87921  -0.00078   0.00415   0.00000   0.00415   0.88336
   D20       -1.05571   0.00115   0.00785   0.00000   0.00785  -1.04786
   D21       -1.25917  -0.00098   0.00656   0.00000   0.00656  -1.25261
   D22        3.08909   0.00094   0.01026   0.00000   0.01026   3.09935
   D23        3.03170  -0.00097   0.00524   0.00000   0.00524   3.03693
   D24        1.09677   0.00096   0.00894   0.00000   0.00894   1.10571
   D25       -1.06294   0.00012   0.01116   0.00000   0.01115  -1.05178
   D26        1.05825   0.00010   0.00825   0.00000   0.00824   1.06650
   D27        3.07646   0.00012   0.00986   0.00000   0.00985   3.08632
   D28        3.10941  -0.00007  -0.00012   0.00000  -0.00011   3.10929
   D29       -1.05259  -0.00009  -0.00303   0.00000  -0.00302  -1.05561
   D30        0.96562  -0.00007  -0.00142   0.00000  -0.00141   0.96421
   D31        1.02191  -0.00016   0.00203   0.00000   0.00204   1.02394
   D32       -3.14009  -0.00018  -0.00088   0.00000  -0.00088  -3.14096
   D33       -1.12188  -0.00016   0.00074   0.00000   0.00074  -1.12114
   D34       -0.87947   0.00075  -0.00427   0.00000  -0.00426  -0.88373
   D35        1.05530  -0.00106  -0.00799   0.00000  -0.00798   1.04732
   D36        1.25882   0.00095  -0.00669   0.00000  -0.00670   1.25213
   D37       -3.08959  -0.00086  -0.01041   0.00000  -0.01041  -3.10000
   D38       -3.03211   0.00092  -0.00540   0.00000  -0.00540  -3.03751
   D39       -1.09734  -0.00089  -0.00912   0.00000  -0.00912  -1.10645
   D40       -1.03903  -0.00023  -0.00301   0.00000  -0.00301  -1.04204
   D41        1.09289  -0.00007  -0.00518   0.00000  -0.00518   1.08770
   D42        3.11655  -0.00007  -0.00216   0.00000  -0.00216   3.11438
   D43       -3.14106  -0.00011   0.00151   0.00000   0.00151  -3.13955
   D44       -1.00915   0.00005  -0.00066   0.00000  -0.00066  -1.00981
   D45        1.01452   0.00005   0.00236   0.00000   0.00236   1.01687
   D46        1.09469  -0.00004  -0.00148   0.00000  -0.00148   1.09321
   D47       -3.05658   0.00012  -0.00365   0.00000  -0.00365  -3.06023
   D48       -1.03292   0.00012  -0.00063   0.00000  -0.00063  -1.03355
         Item               Value     Threshold  Converged?
 Maximum Force            0.021855     0.000450     NO 
 RMS     Force            0.002575     0.000300     NO 
 Maximum Displacement     0.417526     0.001800     NO 
 RMS     Displacement     0.070661     0.001200     NO 
 Predicted change in Energy=-1.098599D-04
 GradGradGradGradGradGradGradGradGradGradGradGradGradGradGradGradGradGrad

                          Input orientation:                          
 ---------------------------------------------------------------------
 Center     Atomic      Atomic             Coordinates (Angstroms)
 Number     Number       Type             X           Y           Z
 ---------------------------------------------------------------------
      1          6           0        2.353885    0.963842    1.276901
      2          6           0        2.140304   -0.539246    1.386148
      3          6           0        2.138647   -0.538765   -1.385555
      4          6           0        2.351943    0.964412   -1.276087
      5          6           0        3.088083    1.374011   -0.000065
      6          1           0        3.093011   -1.081260    1.392116
      7          1           0        1.585568   -0.815832    2.285994
      8          1           0        1.381476    1.469979    1.332387
      9          1           0        2.930613    1.281936    2.154041
     10          1           0        3.091627   -1.080322   -1.392573
     11          1           0        1.583572   -0.815255   -2.285238
     12          1           0        2.927101    1.283241   -2.153971
     13          1           0        1.379202    1.470126   -1.329605
     14          1           0        4.092017    0.926641   -0.000980
     15          1           0        3.231377    2.459817    0.000083
     16         16           0        1.191939   -1.245009    0.000346
     17         79           0       -0.854198   -0.203913    0.001901
     18         17           0       -2.879479    0.897075   -0.006879
 ---------------------------------------------------------------------
                    Distance matrix (angstroms):
                    1          2          3          4          5
     1  C    0.000000
     2  C    1.522112   0.000000
     3  C    3.064772   2.771704   0.000000
     4  C    2.552988   3.064844   1.522175   0.000000
     5  C    1.529028   2.545668   2.545530   1.529021   0.000000
     6  H    2.177619   1.096114   2.986732   3.442856   2.822507
     7  H    2.185365   1.092682   3.723296   4.055245   3.504144
     8  H    1.097648   2.148416   3.463461   2.828699   2.167289
     9  H    1.096893   2.128603   4.058436   3.493058   2.161815
    10  H    3.442232   2.986482   1.096132   2.177530   2.821851
    11  H    4.055539   3.723601   1.092696   2.185404   3.504063
    12  H    3.493061   4.058689   2.128809   1.096877   2.161820
    13  H    2.828462   3.462971   2.148379   1.097650   2.167299
    14  H    2.157653   2.807514   2.807155   2.157587   1.099102
    15  H    2.153648   3.479367   3.479303   2.153660   1.095221
    16  S    2.803343   1.821523   1.820922   2.802932   3.233361
    17  Au   3.644320   3.315966   3.315763   3.643841   4.246343
    18  Cl   5.388937   5.403866   5.398516   5.383604   5.986594
                    6          7          8          9         10
     6  H    0.000000
     7  H    1.772527   0.000000
     8  H    3.072741   2.485146   0.000000
     9  H    2.488292   2.495433   1.763604   0.000000
    10  H    2.784689   3.983720   4.105369   4.264347   0.000000
    11  H    3.983979   4.571232   4.283730   5.091161   1.772383
    12  H    4.265340   5.091081   3.818182   4.308014   2.488619
    13  H    4.105420   4.282610   2.661992   3.818125   3.072645
    14  H    2.640151   3.814282   3.069220   2.473703   2.639169
    15  H    3.807378   4.320180   2.485346   2.473337   3.806784
    16  S    2.361760   2.358670   3.030085   3.747911   2.361389
    17  Au   4.275850   3.397644   3.093597   4.600461   4.275767
    18  Cl   6.445280   5.303581   4.503065   6.210866   6.440835
                   11         12         13         14         15
    11  H    0.000000
    12  H    2.495193   0.000000
    13  H    2.485552   1.763660   0.000000
    14  H    3.813704   2.473776   3.069199   0.000000
    15  H    4.320191   2.473230   2.485580   1.758218   0.000000
    16  S    2.358380   3.747521   3.029157   3.623054   4.229071
    17  Au   3.398156   4.599743   3.092474   5.073776   4.877232
    18  Cl   5.295452   6.202862   4.496038   6.971561   6.307518
                   16         17         18
    16  S    0.000000
    17  Au   2.295769   0.000000
    18  Cl   4.600546   2.305215   0.000000
 Stoichiometry    C5H10AuClS
 Framework group  C1[X(C5H10AuClS)]
 Deg. of freedom    48
 Full point group                 C1      NOp   1
 Largest Abelian subgroup         C1      NOp   1
 Largest concise Abelian subgroup C1      NOp   1
                         Standard orientation:                         
 ---------------------------------------------------------------------
 Center     Atomic      Atomic             Coordinates (Angstroms)
 Number     Number       Type             X           Y           Z
 ---------------------------------------------------------------------
      1          6           0        2.349772    0.973475    1.284012
      2          6           0        2.140180   -0.531111    1.379486
      3          6           0        2.136600   -0.504985   -1.392093
      4          6           0        2.346059    0.997665   -1.268858
      5          6           0        3.082015    1.397358    0.010407
      6          1           0        3.094298   -1.070670    1.379799
      7          1           0        1.586790   -0.817459    2.277104
      8          1           0        1.376089    1.476539    1.344831
      9          1           0        2.926279    1.284942    2.163673
     10          1           0        3.090981   -1.043966   -1.404761
     11          1           0        1.581622   -0.774585   -2.293924
     12          1           0        2.919777    1.326104   -2.144139
     13          1           0        1.371969    1.501314   -1.317042
     14          1           0        4.087109    0.952636    0.004680
     15          1           0        3.222484    2.483486    0.020509
     16         16           0        1.192694   -1.226491   -0.012155
     17         79           0       -0.856144   -0.190796    0.000406
     18         17           0       -2.884289    0.904940    0.003172
 ---------------------------------------------------------------------
 Rotational constants (GHZ):      1.8886507      0.4998744      0.4797243
 Basis read from rwf:  (5D, 7F)
 Pseudo-potential data read from rwf file.
 There are   181 symmetry adapted cartesian basis functions of A   symmetry.
 There are   168 symmetry adapted basis functions of A   symmetry.
   168 basis functions,   332 primitive gaussians,   181 cartesian basis functions
    46 alpha electrons       46 beta electrons
       nuclear repulsion energy       661.2330744079 Hartrees.
 NAtoms=   18 NActive=   18 NUniq=   18 SFac= 1.00D+00 NAtFMM=   60 NAOKFM=F Big=F
 Integral buffers will be    131072 words long.
 Raffenetti 2 integral format.
 Two-electron integral symmetry is turned on.
 One-electron integrals computed using PRISM.
   1 Symmetry operations used in ECPInt.
 ECPInt:  NShTT=    2080 NPrTT=   10482 LenC2=    2018 LenP2D=    7312.
 LDataN:  DoStor=T MaxTD1= 7 Len=  274
 NBasis=   168 RedAO= T EigKep=  3.47D-03  NBF=   168
 NBsUse=   168 1.00D-06 EigRej= -1.00D+00 NBFU=   168
 Defaulting to unpruned grid for atomic number  79.
 Lowest energy guess from the checkpoint file:  "/home/scr/guest2/Gau-4994.chk"
 B after Tr=     0.000000    0.000000    0.000000
         Rot=    0.999991   -0.004329   -0.000149    0.000213 Ang=  -0.50 deg.
 B after Tr=     0.000000    0.000000    0.000000
         Rot=    0.999990    0.001393    0.000126   -0.004277 Ang=   0.52 deg.
 Keep R1 ints in memory in canonical form, NReq=103904134.
 Requested convergence on RMS density matrix=1.00D-08 within 128 cycles.
 Requested convergence on MAX density matrix=1.00D-06.
 Requested convergence on             energy=1.00D-06.
 No special actions if energy rises.
 Defaulting to unpruned grid for atomic number  79.
 Defaulting to unpruned grid for atomic number  79.
 Defaulting to unpruned grid for atomic number  79.
 Defaulting to unpruned grid for atomic number  79.
 Defaulting to unpruned grid for atomic number  79.
 Defaulting to unpruned grid for atomic number  79.
 Defaulting to unpruned grid for atomic number  79.
 Defaulting to unpruned grid for atomic number  79.
 SCF Done:  E(RB3LYP) =  -1190.48946448     A.U. after    9 cycles
            NFock=  9  Conv=0.38D-08     -V/T= 2.0869
[...]
 0.0002872,0.0864035,0.068687,0.0023447,0.1883781,-0.0034905,-0.0000018
 ,-0.0305728,0.092823,0.0000007,0.0000514,-0.0000155,0.0817662,-0.11570
 16,0.0661282,-0.0623561,-0.0208119,0.0054995,-0.0434979,-0.0738873,-0.
 030106,0.036117,0.0407385,-0.0471004,0.0320183,-0.0493794,0.0272643,0.
 0002994,0.0293614,0.0188312,-0.030223,-0.0759943,0.0494759,0.0379566,0
 .0524939,0.0206254,0.0340163,0.0272984,0.0429592,0.0521744,-0.0049429,
 -0.0632443,-0.0930639,-0.0811567,0.0011533,-0.0640947,-0.0646763,-0.03
 47747,-0.0927704,-0.1156461,0.0661101,0.0623574,-0.0208159,0.0054935,0
 .0434979,0.0738729,0.0301079,0.0361191,0.0407382,-0.0470981,-0.0320226
 ,-0.0493522,0.0272624,-0.0002944,-0.0293338,-0.0188344,-0.0302256,-0.0
 049107,-0.0632551,0.0930543,-0.0811505,0.001141,0.0641068,0.0646476,0.
 0347862,-0.0927632,-0.0759377,0.0494611,-0.0379408,0.0524643,0.0206331
 ,-0.034021,-0.027285,-0.0429631,0.0521717,-0.1369405,0.0474894,0.00000
 08,0.1213714,0.0124348,0.0000015,0.0000043,0.0000006,-0.0072596,0.0377
 615,-0.0349507,-0.0000002,-0.0743243,-0.142423,-0.000007,-0.0000156,0.
 ,0.0206698,0.1604447,-0.015549,0.0000037,-0.0473339,0.0267789,-0.00000
 68,-0.0000628,0.0000123,0.0192827,0.8100357,-0.3219429,0.0000167,-0.30
 91501,0.0224639,-0.0000013,0.0001167,-0.0000363,-0.1312286,-0.9878028,
 0.2371335,-0.0000274,0.3150914,-0.4129612,0.0000085,-0.0000484,0.00001
 96,-0.3020947\Polar=143.2337468,-7.6262709,95.0984358,0.0017644,-0.001
 2623,96.6551124\PG=C01 [X(C5H10Au1Cl1S1)]\NImag=0\\0.57837164,-0.03422
 899,0.48391521,0.04568554,0.02674209,0.52823169,-0.08178528,-0.0066977
 5,0.00616989,0.52366810,-0.00972236,-0.18603067,0.00951106,-0.05413740
 ,0.45068543,0.00790822,0.01531903,-0.07710871,-0.10898673,-0.06244009,
 0.45282303,0.00019239,0.00132614,0.00140802,0.00986178,0.00546039,-0.0
 1024693,0.52367343,0.00138208,0.00017815,0.00205450,0.00545896,0.00778
 103,-0.00934544,-0.05415134,0.45065837,0.00189118,0.00065353,0.0031897
 8,0.01024585,0.00934450,-0.02003191,0.10898202,0.06243402,0.45282621,0
 .01166284,0.00674306,0.01215678,0.00019272,0.00138182,-0.00189012,-0.0
 8178715,-0.00972284,-0.00790754,0.57836562,0.00674213,0.00510718,0.005
 67235,0.00132655,0.00017666,-0.00065172,-0.00669588,-0.18601531,-0.015
 32277,-0.03421877,0.48391033,-0.01216039,-0.00567629,-0.03063596,-0.00
 140799,-0.00205346,0.00318973,-0.00616778,-0.00951441,-0.07710868,-0.0
 4568524,-0.02674275,0.52823585,-0.10916484,-0.01277276,0.04275163,-0.0
 0338909,-0.00574295,0.00383632,-0.00338921,-0.00574221,-0.00383715,-0.
 10917089,-0.01277185,-0.04275819,0.54353410,-0.01135985,-0.08883727,0.
 02127055,-0.01917130,-0.01255663,0.03122341,-0.01917215,-0.01255354,-0
 .03122404,-0.01135825,-0.08883178,-0.02126664,-0.02330379,0.60000891,0
 .04127851,0.01957388,-0.15218243,0.00277449,0.00818448,0.00065353,-0.0
 0277619,-0.00818544,0.00065015,-0.04128519,-0.01957068,-0.15218854,0.0
 0000246,0.00000504,0.44975898,0.00572213,-0.00284720,0.00091033,-0.248
 83273,0.11630679,0.00289030,0.00065205,0.00010852,0.00053655,0.0000443
 7,-0.00007078,-0.00017261,0.00081103,-0.00031993,-0.00027633,0.2661699
 0,0.02949247,-0.01666773,0.00021049,0.11456673,-0.11345804,0.00238872,
 0.00034342,-0.00033494,0.00080359,-0.00024320,-0.00010671,0.00007422,0
 .00138993,0.00165734,-0.00095747,-0.12229481,0.12549374,-0.00142497,0.
 00086553,0.00056040,0.00106669,0.00695777,-0.04724475,-0.00045847,0.00
 067433,0.00139199,0.00010593,0.00001764,-0.00045489,-0.00114949,0.0000
 5696,0.00007109,0.00172973,0.00101401,0.05007257,-0.00170471,-0.000038
 55,0.00249830,-0.12176684,-0.03108028,0.12018760,-0.00307274,-0.002444
 92,-0.00305904,-0.00019631,-0.00027872,0.00002470,0.00068132,-0.001207
 82,-0.00049222,-0.01281978,-0.00656907,0.02388264,0.12960916,-0.017215
 66,-0.00676664,0.02873772,-0.03214756,-0.06260119,0.05346297,-0.002084
 08,-0.00175103,-0.00209278,-0.00028649,-0.00025001,-0.00030840,0.00044
 659,-0.00680109,-0.00212267,0.00775836,0.00381074,-0.01382793,0.037757
 53,0.06883379,0.00009774,0.00003416,0.00083097,0.12099470,0.05566739,-
 0.23345503,-0.00361456,-0.00261785,-0.00329075,-0.00024034,-0.00039445
 ,0.00068684,-0.00009751,0.00029180,0.00105730,-0.00052314,-0.00045784,
 0.00275224,-0.12573555,-0.05577528,0.25011887,-0.25300624,0.10717117,0
 .00900029,0.00513252,-0.00321890,-0.00115323,0.00012399,-0.00004764,0.
 00016856,0.00065136,-0.00005480,-0.00095463,-0.01509100,0.00649606,0.0
 0142603,0.00093346,-0.00182776,-0.00022887,0.00044726,0.00047634,-0.00
 016119,0.27406217,0.10470076,-0.10458172,-0.00609735,0.03040192,-0.019
 64630,-0.00065897,-0.00025611,-0.00030297,-0.00026742,0.00026698,0.000
 11295,-0.00034415,-0.00933009,0.00481203,0.00026430,-0.00163473,-0.006
 29503,0.00029973,-0.00021073,0.00113066,0.00002267,-0.11471826,0.11699
 429,0.00882409,-0.00542319,-0.05178594,-0.00299023,0.00044011,-0.00082
 297,-0.00004924,-0.00001301,-0.00032101,0.00079282,-0.00072198,0.00186
 511,0.02656504,-0.01336210,-0.00215475,0.00049798,0.00072680,0.0010286
 7,-0.00047002,0.00000048,0.00010532,-0.01240737,0.00350936,0.05396094,
 -0.12329018,-0.03880784,-0.11055946,-0.00325343,-0.00116792,-0.0033670
 3,-0.00017416,-0.00001789,0.00035819,-0.00167630,-0.00130177,0.0022431
 8,0.00921154,0.00541593,0.01568443,0.00041487,-0.00020971,0.00025703,-
 0.00008008,-0.00005487,0.00012677,-0.01468647,-0.00908859,-0.02300034,
 0.13074696,-0.03870254,-0.07017069,-0.05974335,-0.01829121,-0.01235640
 ,-0.02521908,-0.00042772,0.00006266,0.00104169,-0.00135406,-0.00013982
 ,0.00164664,0.00609979,0.00284017,0.00743061,0.00070094,0.00116477,-0.
 00011922,-0.00012246,0.00138429,0.00022635,0.00762484,0.00506439,0.013
 04873,0.04541849,0.07737673,-0.10979444,-0.05892227,-0.21034945,0.0006
 5084,-0.00062234,0.00135862,0.00022364,0.00071353,-0.00012887,0.004853
 99,0.00251055,-0.00274053,-0.01518712,-0.00754867,-0.02324415,0.000172
 09,-0.00033348,0.00025762,0.00009095,-0.00040907,0.00058512,0.00052893
 ,0.00115744,0.00157264,0.11845872,0.06320870,0.22974988,0.00004436,-0.
 00007085,0.00017259,0.00065208,0.00010858,-0.00053660,-0.24883394,0.11
 631140,-0.00287882,0.00572332,-0.00284818,-0.00091035,0.00081105,-0.00
 031981,0.00027632,0.00037715,0.00023204,0.00058224,0.00017761,-0.00013
 051,-0.00007615,-0.00013889,-0.00003122,-0.00008647,-0.00001204,0.0000
 5056,-0.00002610,0.26616961,-0.00024322,-0.00010670,-0.00007410,0.0003
 4359,-0.00033481,-0.00080379,0.11457240,-0.11345981,-0.00239340,0.0294
 9174,-0.01666694,-0.00021222,0.00138956,0.00165727,0.00095763,0.000231
 98,0.00009569,-0.00010099,-0.00010796,-0.00007935,-0.00016025,-0.00008
 527,-0.00003929,0.00016597,0.00004336,0.00007110,-0.00011783,-0.122299
 41,0.12549579,-0.00010604,-0.00001755,-0.00045484,0.00045888,-0.000674
 48,0.00139206,-0.00105535,-0.00696178,-0.04724455,0.00142726,-0.000867
 07,0.00056083,0.00114915,-0.00005697,0.00007110,-0.00058254,0.00010142
 ,-0.00029624,-0.00020448,0.00027307,0.00025534,-0.00010775,0.00013655,
 0.00004419,-0.00003164,-0.00010057,0.00003913,-0.00174256,-0.00100931,
 0.05007232,-0.00019631,-0.00027870,-0.00002467,-0.00307255,-0.00244504
 ,0.00305897,-0.12177187,-0.03107129,-0.12019155,-0.00170477,-0.0000384
 9,-0.00249864,0.00068127,-0.00120796,0.00049208,0.00017763,-0.00010796
 ,0.00020448,0.00113082,0.00059238,0.00115057,0.00000294,0.00007296,-0.
 00005551,0.00000484,0.00009622,-0.00013353,-0.01282028,-0.00656746,-0.
 02388281,0.12961459,-0.00028643,-0.00025008,0.00030843,-0.00208415,-0.
 00175133,0.00209276,-0.03213822,-0.06259145,-0.05344838,-0.01721656,-0
 .00676491,-0.02873781,0.00044660,-0.00680134,0.00212208,-0.00013049,-0
 .00007932,-0.00027304,0.00059243,0.00070349,0.00083389,0.00005711,0.00
 005558,-0.00007484,0.00005608,0.00015550,-0.00012701,0.00775883,0.0038
 0982,0.01382808,0.03774761,0.06882486,0.00024038,0.00039439,0.00068699
 ,0.00361422,0.00261802,-0.00329057,-0.12099917,-0.05565244,-0.23345940
 ,-0.00009909,-0.00003481,0.00082895,0.00009750,-0.00029239,0.00105744,
 0.00007617,0.00016020,0.00025529,-0.00115057,-0.00083378,-0.00088882,-
 0.00002492,-0.00008111,-0.00001841,-0.00006453,0.00005486,0.00009018,0
 .00052397,0.00045797,0.00275360,0.12574062,0.05576031,0.25012250,-0.00
 167654,-0.00130162,-0.00224334,-0.00017420,-0.00001794,-0.00035822,-0.
 00325300,-0.00116756,0.00336638,-0.12328198,-0.03881691,0.11055428,0.0
 0921134,0.00541732,-0.01568546,-0.00001200,0.00004337,0.00003166,0.000
 00484,0.00005610,0.00006453,0.00016175,-0.00005259,-0.00025450,0.00046
 139,0.00015653,-0.00081402,0.00041466,-0.00020991,-0.00025707,-0.00008
 001,-0.00005485,-0.00012680,0.13073815,-0.00135372,-0.00013942,-0.0016
 4645,-0.00042778,0.00006273,-0.00104170,-0.01828945,-0.01235744,0.0252
 1797,-0.03871198,-0.07018359,0.05976069,0.00609832,0.00284032,-0.00742
 877,0.00005055,0.00007108,0.00010057,0.00009621,0.00015551,-0.00005484
 ,-0.00019068,-0.00010611,0.00033682,0.00015643,0.00048654,-0.00080394,
 0.00070110,0.00116493,0.00011928,-0.00012243,0.00138428,-0.00022628,0.
 04542757,0.07738856,-0.00485413,-0.00251038,-0.00274057,-0.00022362,-0
 .00071344,-0.00012905,-0.00065284,0.00062089,0.00136092,0.10978875,0.0
 5893888,-0.21034871,0.01518641,0.00755070,-0.02324491,0.00002606,0.000
 11782,0.00003914,0.00013354,0.00012699,0.00009020,-0.00005342,-0.00014
 330,0.00029230,0.00081397,0.00080407,-0.00149719,-0.00017201,0.0003335
 4,0.00025754,-0.00009091,0.00040923,0.00058511,-0.11845176,-0.06322637
 ,0.22974996,0.00065127,-0.00005498,0.00095465,0.00012394,-0.00004770,-
 0.00016883,0.00513321,-0.00321892,0.00115217,-0.25300110,0.10716933,-0
 .00898425,-0.01509189,0.00649660,-0.00142490,-0.00013888,-0.00008529,0
 .00010780,0.00000295,0.00005712,0.00002492,0.00055299,0.00021531,-0.00
 059645,0.00016171,-0.00019070,0.00005342,0.00093341,-0.00182791,0.0002
 2876,0.00044665,0.00047669,0.00016170,-0.01468587,0.00762423,-0.000527
 61,0.27405889,0.00026737,0.00011291,0.00034364,-0.00025620,-0.00030332
 ,0.00026742,0.03040107,-0.01964578,0.00065633,0.10469836,-0.10458183,0
 .00608784,-0.00932757,0.00481104,-0.00026351,-0.00003124,-0.00003927,-
 0.00013658,0.00007299,0.00005550,0.00008117,0.00021585,0.00027284,0.00
 030556,-0.00005254,-0.00010609,0.00014337,-0.00163489,-0.00629478,-0.0
 0030019,-0.00021038,0.00113009,-0.00002284,-0.00909046,0.00506558,-0.0
 0115683,-0.11471761,0.11698924,-0.00079253,0.00072159,0.00186580,0.000
 04932,0.00001320,-0.00032089,0.00299146,-0.00043999,-0.00082362,-0.008
 80875,0.00541256,-0.05178460,-0.02656483,0.01336198,-0.00215240,0.0000
 8648,-0.00016598,0.00004416,0.00005550,0.00007480,-0.00001838,0.000597
 52,-0.00030081,-0.00056922,0.00025449,-0.00033685,0.00029232,-0.000498
 13,-0.00072713,0.00102848,0.00047082,-0.00000085,0.00010478,0.02300046
 ,-0.01304847,0.00157051,0.01238870,-0.00350290,0.05396032,-0.01589040,
 0.00702992,0.00137275,0.00023277,0.00102843,-0.00089874,0.00023252,0.0
 0102890,0.00089903,-0.01589244,0.00703115,-0.00137245,-0.25587305,0.09
 326089,0.00000667,0.00019315,-0.00104204,0.00020963,0.00038066,-0.0001
 2595,0.00005383,-0.00018190,-0.00113453,0.00300624,0.00085059,-0.00006
 303,0.00020053,0.00019385,-0.00104200,-0.00020927,0.00038068,-0.000125
 89,-0.00005380,0.00085067,-0.00006308,-0.00020040,-0.00018207,-0.00113
 438,-0.00300659,0.28038393,-0.00912677,0.00321906,0.00033925,-0.000930
 49,0.00122894,-0.00037409,-0.00093065,0.00122929,0.00037425,-0.0091248
 7,0.00321842,-0.00033908,0.09375194,-0.09583877,-0.00000305,0.00029660
 ,0.00004855,0.00013603,0.00014681,0.00015427,-0.00003425,-0.00131306,0
 .00038578,0.00157844,0.00042434,0.00013638,-0.00058454,0.00029702,0.00
 004782,-0.00013618,0.00014678,0.00015426,0.00003424,0.00042440,0.00013
 618,0.00058457,-0.00131296,0.00038614,-0.00157804,-0.10348784,0.098712
 40,0.02827633,-0.01260323,-0.00178302,-0.00035929,-0.00128937,0.001125
 28,0.00035932,0.00128944,0.00112536,-0.02827651,0.01260344,-0.00178132
 ,0.00000645,-0.00000341,-0.04860733,-0.00044983,0.00072808,0.00007150,
 -0.00034234,-0.00018312,-0.00004048,0.00288150,0.00231527,-0.00467780,
 -0.00052165,-0.00047484,0.00101426,0.00045014,-0.00072816,0.00007144,0
 .00034235,0.00018317,-0.00004047,0.00052177,0.00047466,0.00101458,-0.0
 0288184,-0.00231487,-0.00467790,-0.00000733,0.00000334,0.05768535,-0.0
 0298386,-0.01761726,0.00085257,-0.00125653,0.00029735,0.00309788,-0.00
 125672,0.00029749,-0.00309800,-0.00298396,-0.01761870,-0.00085377,-0.0
 5410648,-0.03035101,-0.00000095,0.00011396,-0.00036846,0.00009206,0.00
 009014,-0.00095774,0.00001464,0.00031965,-0.00011841,-0.00072026,0.000
 59071,0.00057650,-0.00044342,0.00011396,-0.00036845,-0.00009208,0.0000
 9011,-0.00095780,-0.00001471,0.00059083,0.00057648,0.00044353,0.000319
 71,-0.00011844,0.00072020,0.00446014,0.03075875,0.00000092,0.05552383,
 -0.00052110,-0.00756147,0.00022076,-0.00107830,0.00129764,0.00201602,-
 0.00107822,0.00129782,-0.00201562,-0.00052113,-0.00755997,-0.00022129,
 -0.03155856,-0.30877667,-0.00000683,0.00001951,0.00032490,-0.00015543,
 -0.00017443,-0.00054154,-0.00019678,-0.00033597,0.00049242,-0.00000827
 ,0.00031824,0.00034648,0.00034330,0.00001953,0.00032487,0.00015542,-0.
 00017441,-0.00054144,0.00019681,0.00031816,0.00034653,-0.00034344,-0.0
 0033597,0.00049239,0.00000825,-0.00091498,-0.01304608,-0.00000041,0.03
 551599,0.33265538,0.00323186,0.02968363,-0.00050476,0.00333395,0.00044
 823,-0.00552807,-0.00333415,-0.00044785,-0.00552804,-0.00323200,-0.029
 68385,-0.00050674,-0.00000076,-0.00000641,-0.04793344,-0.00007882,-0.0
 0028774,0.00008079,0.00055186,0.00187561,-0.00002627,-0.00023203,-0.00
 052159,0.00109049,-0.00084307,0.00003506,0.00098747,0.00007880,0.00028
 776,0.00008085,-0.00055188,-0.00187563,-0.00002638,0.00084304,-0.00003
 529,0.00098728,0.00023200,0.00052154,0.00109043,-0.00000015,-0.0000009
 6,-0.00044824,0.00000138,0.00000751,0.05655218,-0.00608420,-0.00712391
 ,-0.01081775,-0.06880748,-0.01958738,-0.01207402,-0.06880616,-0.019585
 84,0.01207303,-0.00608292,-0.00712450,0.01081597,0.00039249,0.00074739
 ,0.00000004,-0.01319104,-0.01296916,-0.02415034,0.00696842,0.00565029,
 0.00771226,0.00124542,0.00098085,0.00100350,0.00085775,-0.00177052,0.0
 0116584,-0.01319089,-0.01297067,0.02415008,0.00696849,0.00565115,-0.00
 771249,0.00085759,-0.00177015,-0.00116586,0.00124468,0.00098045,-0.001
 00321,-0.00019476,-0.00001684,0.00000003,0.00033640,0.00050254,0.,0.22
 280529,-0.01898093,-0.01172196,-0.02807240,-0.01455369,-0.05527843,-0.
 00683937,-0.01455690,-0.05528042,0.00684233,-0.01898062,-0.01172634,0.
 02806992,0.00074000,0.00240321,0.00000047,0.00245352,0.00476787,0.0056
 2080,0.00340581,0.00261265,0.00244617,-0.00039440,0.00155248,-0.000588
 82,-0.00099714,-0.00653132,0.00143887,0.00245353,0.00476825,-0.0056201
 6,0.00340492,0.00261214,-0.00244491,-0.00099704,-0.00653097,-0.0014396
 1,-0.00039281,0.00155659,0.00058942,-0.00025462,-0.00014173,0.00000001
 ,0.00041858,0.00043515,-0.00000001,0.03057929,0.16073680,-0.00810665,-
 0.00897729,-0.00814925,-0.02744345,-0.03122669,-0.07305381,0.02744307,
 0.03122655,-0.07305075,0.00810452,0.00897706,-0.00814646,0.00000010,0.
 00000025,-0.00141674,-0.00352435,-0.00272978,-0.00693187,-0.01592338,-
 0.00908694,-0.01935493,0.00076892,0.00072143,0.00035726,0.00025863,-0.
 00173031,0.00199238,0.00352506,0.00273116,-0.00693347,0.01592270,0.009
 08775,-0.01935335,-0.00025855,0.00172955,0.00199231,-0.00076884,-0.000
 72018,0.00035720,0.00000003,0.00000007,-0.00004575,0.,-0.00000005,-0.0
 0046997,0.00000183,-0.00000218,0.22899582,-0.00107692,-0.00045846,0.00
 007454,-0.00719745,0.00192718,-0.00230424,-0.00719744,0.00192610,0.002
 30403,-0.00107795,-0.00045784,-0.00007463,-0.00017382,-0.00014092,0.00
 000081,-0.00042643,0.00002105,-0.00044706,0.00009926,0.00032309,0.0002
 0307,-0.00038383,-0.00022169,-0.00025705,0.00003245,0.00040313,0.00003
 990,-0.00042617,0.00002099,0.00044693,0.00009977,0.00032308,-0.0002027
 4,0.00003267,0.00040330,-0.00004013,-0.00038383,-0.00022086,0.00025674
 ,0.00013673,-0.00008804,-0.00000006,0.00011148,0.00015046,-0.00000015,
 -0.06230435,0.02235802,0.00000158,0.18675634,-0.00099146,0.00057586,0.
 00015523,-0.00364382,0.00430895,0.00127571,-0.00364385,0.00430964,-0.0
 0127534,-0.00099105,0.00057536,-0.00015514,0.00034256,-0.00006451,-0.0
 0000043,-0.00092206,-0.00082821,-0.00174367,0.00024506,-0.00007583,0.0
 0014574,0.00022471,0.00020449,0.00017123,-0.00021144,0.00010157,-0.000
 06195,-0.00092216,-0.00082838,0.00174387,0.00024514,-0.00007606,-0.000
 14629,-0.00021148,0.00010145,0.00006212,0.00022459,0.00020542,-0.00017
 201,0.00003134,-0.00001005,0.00000003,-0.00004706,-0.00009085,0.000000
 07,0.03602436,-0.04000916,-0.00000103,-0.07343563,0.06702657,-0.000210
 17,0.00025848,0.00038446,-0.00955990,0.00716943,0.00065437,0.00955953,
 -0.00716947,0.00065404,0.00021013,-0.00025848,0.00038422,-0.00000002,-
 0.00000005,-0.00016688,-0.00162996,-0.00176375,-0.00217591,-0.00007309
 ,0.00014924,0.00066914,-0.00001868,-0.00007207,0.00008834,-0.00008217,
 0.00024505,0.00001423,0.00162991,0.00176389,-0.00217604,0.00007250,-0.
 00014907,0.00066918,0.00008213,-0.00024497,0.00001427,0.00001897,0.000
 07104,0.00008824,0.00000002,0.00000002,-0.00007001,0.00000002,0.000000
 06,0.00012188,0.00000067,-0.00000024,-0.02348707,0.00000694,-0.0000024
 2,0.03550317,0.00021484,0.00002859,-0.00036266,-0.00032834,0.00065731,
 0.00100536,-0.00032698,0.00065700,-0.00100490,0.00021555,0.00002802,0.
 00036277,0.00011611,0.00007861,-0.00000060,-0.00018885,-0.00037155,-0.
 00041070,0.00004804,-0.00011493,0.00000541,-0.00014517,0.00015819,0.00
 019777,-0.00016015,-0.00020474,-0.00004024,-0.00018886,-0.00037137,0.0
 0041055,0.00004800,-0.00011518,-0.00000574,-0.00016030,-0.00020491,0.0
 0004043,-0.00014578,0.00015847,-0.00019766,-0.00008108,0.00008490,0.00
 000004,-0.00007337,-0.00015137,0.00000013,-0.00301472,0.00429446,-0.00
 000123,-0.10662049,0.04768226,-0.00000683,0.11079156,0.00014821,-0.000
 27403,0.00006757,0.00132189,-0.00122427,-0.00067178,0.00132115,-0.0012
 2426,0.00067153,0.00014786,-0.00027368,-0.00006766,-0.00015550,0.00003
 133,0.00000037,0.00032448,0.00037458,0.00061349,-0.00008190,0.00002576
 ,-0.00005780,-0.00007934,-0.00010652,-0.00009130,0.00007686,0.00011374
 ,0.00001531,0.00032445,0.00037453,-0.00061344,-0.00008187,0.00002588,0
 .00005805,0.00007692,0.00011384,-0.00001543,-0.00007902,-0.00010668,0.
 00009124,-0.00002230,-0.00002087,-0.00000003,0.00008218,0.00010442,-0.
 00000007,0.00180266,0.00577518,0.00000063,0.04716704,-0.03542625,0.000
 00332,-0.05229375,0.03171730,0.00001546,-0.00011611,-0.00005516,0.0016
 1236,-0.00133430,-0.00021088,-0.00161238,0.00133441,-0.00021088,-0.000
 01541,0.00011609,-0.00005511,0.,0.,-0.00002802,0.00031188,0.00037069,0
 .00047819,0.00002561,-0.00006091,-0.00007666,-0.00002965,0.00006001,-0
 .00005518,0.00001449,-0.00001754,0.00000633,-0.00031184,-0.00037075,0.
 00047824,-0.00002560,0.00006091,-0.00007663,-0.00001453,0.00001752,0.0
 0000634,0.00002962,-0.00005999,-0.00005524,0.,0.,0.00006454,0.,0.,-0.0
 0001947,0.00000039,-0.00000029,0.00669845,-0.00000848,0.00000428,-0.01
 116961,0.00000810,-0.00000401,0.00428074\\0.00001334,-0.00004399,-0.00
 002394,-0.00000058,0.00004404,0.00002060,0.00000167,0.00003589,-0.0000
 1996,0.00001754,-0.00004133,0.00002268,-0.00001788,0.00000313,-0.00000
 201,-0.00000283,-0.00000845,-0.00000138,0.00000024,-0.00000455,-0.0000
 0133,-0.00000176,0.00000796,0.00000946,-0.00000125,0.00000676,0.000006
 23,-0.00000475,-0.00000931,0.00000190,0.00000139,-0.00000269,-0.000000
 42,-0.00000138,0.00000963,-0.00000433,-0.00000324,0.00001000,-0.000008
 48,0.00000672,-0.00000411,-0.00000040,0.00000753,-0.00000422,-0.000000
 93,-0.00003114,-0.00000140,-0.00000071,0.00000704,-0.00000471,0.000005
 39,0.00000933,0.00000736,-0.00000236\\\@


 Once you get people laughing, they're
 listening and you can tell them almost anything.
                                 -- Herb Gardner
 Job cpu time:       0 days  0 hours 10 minutes 42.9 seconds.
 File lengths (MBytes):  RWF=     75 Int=      0 D2E=      0 Chk=      3 Scr=      1
 Normal termination of Gaussian 09 at Thu May 18 08:10:12 2023.
