 Entering Gaussian System, Link 0=g09
 Input=au-1to3-ts-2-af59-cterm-se-wat-ts-p.com
 Output=au-1to3-ts-2-af59-cterm-se-wat-ts-p.log
 Initial command:
 /home/scr/programs/g09/l1.exe "/home/scr/guest2/Gau-6818.inp" -scrdir="/home/scr/guest2/"
 Entering Link 1 = /home/scr/programs/g09/l1.exe PID=      6819.
  
 Copyright (c) 1988,1990,1992,1993,1995,1998,2003,2009,2013,
            Gaussian, Inc.  All Rights Reserved.
  
 This is part of the Gaussian(R) 09 program.  It is based on
 the Gaussian(R) 03 system (copyright 2003, Gaussian, Inc.),
 the Gaussian(R) 98 system (copyright 1998, Gaussian, Inc.),
 the Gaussian(R) 94 system (copyright 1995, Gaussian, Inc.),
 the Gaussian 92(TM) system (copyright 1992, Gaussian, Inc.),
 the Gaussian 90(TM) system (copyright 1990, Gaussian, Inc.),
 the Gaussian 88(TM) system (copyright 1988, Gaussian, Inc.),
 the Gaussian 86(TM) system (copyright 1986, Carnegie Mellon
 University), and the Gaussian 82(TM) system (copyright 1983,
 Carnegie Mellon University). Gaussian is a federally registered
 trademark of Gaussian, Inc.
  
 This software contains proprietary and confidential information,
 including trade secrets, belonging to Gaussian, Inc.
  
 This software is provided under written license and may be
 used, copied, transmitted, or stored only in accord with that
 written license.
  
 The following legend is applicable only to US Government
 contracts under FAR:
  
                    RESTRICTED RIGHTS LEGEND
  
 Use, reproduction and disclosure by the US Government is
 subject to restrictions as set forth in subparagraphs (a)
 and (c) of the Commercial Computer Software - Restricted
 Rights clause in FAR 52.227-19.
  
 Gaussian, Inc.
 340 Quinnipiac St., Bldg. 40, Wallingford CT 06492
  
  
 ---------------------------------------------------------------
 Warning -- This program may not be used in any manner that
 competes with the business of Gaussian, Inc. or will provide
 assistance to any competitor of Gaussian, Inc.  The licensee
 of this program is prohibited from giving any competitor of
 Gaussian, Inc. access to this program.  By using this program,
 the user acknowledges that Gaussian, Inc. is engaged in the
 business of creating and licensing software in the field of
 computational chemistry and represents and warrants to the
 licensee that it is not a competitor of Gaussian, Inc. and that
 it will not use this program in any manner prohibited above.
 ---------------------------------------------------------------
  

 Cite this work as:
 Gaussian 09, Revision D.01,
 M. J. Frisch, G. W. Trucks, H. B. Schlegel, G. E. Scuseria, 
 M. A. Robb, J. R. Cheeseman, G. Scalmani, V. Barone, B. Mennucci, 
 G. A. Petersson, H. Nakatsuji, M. Caricato, X. Li, H. P. Hratchian, 
 A. F. Izmaylov, J. Bloino, G. Zheng, J. L. Sonnenberg, M. Hada, 
 M. Ehara, K. Toyota, R. Fukuda, J. Hasegawa, M. Ishida, T. Nakajima, 
 Y. Honda, O. Kitao, H. Nakai, T. Vreven, J. A. Montgomery, Jr., 
 J. E. Peralta, F. Ogliaro, M. Bearpark, J. J. Heyd, E. Brothers, 
 K. N. Kudin, V. N. Staroverov, T. Keith, R. Kobayashi, J. Normand, 
 K. Raghavachari, A. Rendell, J. C. Burant, S. S. Iyengar, J. Tomasi, 
 M. Cossi, N. Rega, J. M. Millam, M. Klene, J. E. Knox, J. B. Cross, 
 V. Bakken, C. Adamo, J. Jaramillo, R. Gomperts, R. E. Stratmann, 
 O. Yazyev, A. J. Austin, R. Cammi, C. Pomelli, J. W. Ochterski, 
 R. L. Martin, K. Morokuma, V. G. Zakrzewski, G. A. Voth, 
 P. Salvador, J. J. Dannenberg, S. Dapprich, A. D. Daniels, 
 O. Farkas, J. B. Foresman, J. V. Ortiz, J. Cioslowski, 
 and D. J. Fox, Gaussian, Inc., Wallingford CT, 2013.
 
 ******************************************
 Gaussian 09:  EM64L-G09RevD.01 24-Apr-2013
                18-May-2023 
 ******************************************
 %mem=50000MB
 %nprocshared=15
 Will use up to   15 processors via shared memory.
 ----------------------------------------
 # opt freq=noraman b3lyp/gen pseudo=read
 ----------------------------------------
 1/14=-1,18=20,19=15,26=3,38=1/1,3;
 2/9=110,12=2,17=6,18=5,40=1/2;
 3/5=7,11=2,16=1,17=8,25=1,30=1,71=1,74=-5/1,2,3;
 4//1;
 5/5=2,38=5/2;
 6/7=2,8=2,9=2,10=2,28=1/1;
 7//1,2,3,16;
 1/14=-1,18=20,19=15,26=3/3(2);
 2/9=110/2;
 99//99;
 2/9=110/2;
 3/5=7,6=1,11=2,16=1,17=8,25=1,30=1,71=1,74=-5,82=7/1,2,3;
 4/5=5,16=3,69=1/1;
 5/5=2,38=5/2;
 7//1,2,3,16;
 1/14=-1,18=20,19=15,26=3/3(-5);
 2/9=110/2;
 6/7=2,8=2,9=2,10=2,19=2,28=1/1;
 99/9=1/99;
 -------------------
 Title Card Required
 -------------------
 Symbolic Z-matrix:
 Charge =  0 Multiplicity = 1
 Au                   -2.9455    0.0026    0.19078 
 N                     7.08246   2.90212  -0.18125 
 C                     5.67022   2.55386  -0.05387 
 C                     5.46095   1.04993   0.16051 
 O                     6.11151   0.25498  -0.54206 
 C                     4.9489    2.95524  -1.35796 
 O                     3.5959    2.554    -1.39772 
 N                     4.59438   0.57539   1.1072 
 C                     3.79079   1.31539   2.06051 
 C                     2.41621   1.75986   1.52132 
 O                     2.28304   2.89424   1.06015 
 N                     1.36913   0.89129   1.54132 
 C                     1.18115  -0.37207   2.2279 
 C                     1.31392  -1.66535   1.39751 
 O                     1.73281  -2.67954   1.94273 
 C                    -0.20011  -0.4087    2.96261 
 S                    -1.70922   0.55801   2.33133 
 N                     0.8417   -1.63697   0.11715 
 C                     0.29622  -2.85336  -0.49351 
 C                    -1.24813  -2.85029  -0.6204 
 C                     0.88577  -3.08138  -1.90455 
 O                     0.2306   -2.83865  -2.91284 
 N                     2.14482  -3.62472  -1.99568 
 C                     3.20395  -3.57545  -1.00384 
 C                     4.18588  -2.45841  -1.32779 
 O                     4.27083  -1.94959  -2.42276 
 O                     4.95267  -2.13487  -0.27255 
 H                     5.078     4.03926  -1.48831 
 H                     5.43935   2.46128  -2.19686 
 H                     3.12421   2.98726  -0.65986 
 H                     5.25086   3.13449   0.76598 
 H                     7.51326   2.2269   -0.81309 
 H                     7.56156   2.7996    0.71195 
 H                     4.29978   2.22298   2.36155 
 H                     3.68179   0.68382   2.9573 
 H                     4.49442  -0.44544   1.09738 
 H                    -0.06541   0.13685   3.92438 
 H                    -0.48008  -1.46072   3.1718 
 H                     1.94155  -0.49551   3.02265 
 H                     0.49053   1.33388   1.25579 
 H                    -1.58201  -3.87235  -0.84346 
 H                    -1.57295  -2.24957  -1.47217 
 H                     0.60928  -3.66127   0.16828 
 H                     0.52049  -0.74272  -0.24986 
 H                     3.76162  -4.52163  -1.00913 
 H                     2.79768  -3.46201   0.00079 
 H                     2.48872  -3.59821  -2.95881 
 H                     5.53712  -1.35968  -0.53009 
 Se                   -2.17345  -2.21586   1.01065 
 Cl                   -3.90387  -0.62744  -1.94974 
 C                    -2.58837   2.76532  -2.54491 
 C                    -3.92074   2.82929  -1.79151 
 C                    -2.30168   3.34997   0.47948 
 C                    -1.13619   3.21517  -0.49543 
 C                    -1.48665   3.63421  -1.93303 
 H                    -4.34714   3.83419  -1.80318 
 H                    -4.65295   2.13158  -2.20831 
 H                    -2.26871   1.72574  -2.61432 
 H                    -2.79167   3.09883  -3.57417 
 H                    -2.6484    4.38758   0.56794 
 H                    -2.04298   2.9891    1.47993 
 H                    -0.29551   3.80975  -0.11348 
 H                    -0.80075   2.16243  -0.49817 
 H                    -1.78621   4.68561  -1.93869 
 H                    -0.58161   3.55671  -2.5493 
 S                    -3.79862   2.37373  -0.00765 
 

 GradGradGradGradGradGradGradGradGradGradGradGradGradGradGradGradGradGrad
 Berny optimization.
 Initialization pass.
                           ----------------------------
                           !    Initial Parameters    !
                           ! (Angstroms and Degrees)  !
 --------------------------                            --------------------------
 ! Name  Definition              Value          Derivative Info.                !
 --------------------------------------------------------------------------------
 ! R1    R(1,17)                 2.5335         estimate D2E/DX2                !
 ! R2    R(1,49)                 2.4879         estimate D2E/DX2                !
 ! R3    R(1,50)                 2.4284         estimate D2E/DX2                !
 ! R4    R(1,66)                 2.5277         estimate D2E/DX2                !
 ! R5    R(2,3)                  1.4601         estimate D2E/DX2                !
 ! R6    R(2,32)                 1.0202         estimate D2E/DX2                !
 ! R7    R(2,33)                 1.0187         estimate D2E/DX2                !
 ! R8    R(3,4)                  1.5335         estimate D2E/DX2                !
 ! R9    R(3,6)                  1.5434         estimate D2E/DX2                !
 ! R10   R(3,31)                 1.0886         estimate D2E/DX2                !
 ! R11   R(4,5)                  1.2445         estimate D2E/DX2                !
 ! R12   R(4,8)                  1.3683         estimate D2E/DX2                !
 ! R13   R(6,7)                  1.4118         estimate D2E/DX2                !
 ! R14   R(6,28)                 1.0994         estimate D2E/DX2                !
 ! R15   R(6,29)                 1.0901         estimate D2E/DX2                !
 ! R16   R(7,30)                 0.977          estimate D2E/DX2                !
 ! R17   R(8,9)                  1.4499         estimate D2E/DX2                !
 ! R18   R(8,36)                 1.0258         estimate D2E/DX2                !
 ! R19   R(9,10)                 1.542          estimate D2E/DX2                !
 ! R20   R(9,34)                 1.0832         estimate D2E/DX2                !
 ! R21   R(9,35)                 1.1023         estimate D2E/DX2                !
 ! R22   R(10,11)                1.2318         estimate D2E/DX2                !
 ! R23   R(10,12)                1.3606         estimate D2E/DX2                !
 ! R24   R(12,13)                1.4501         estimate D2E/DX2                !
 ! R25   R(12,40)                1.0244         estimate D2E/DX2                !
 ! R26   R(13,14)                1.5426         estimate D2E/DX2                !
 ! R27   R(13,16)                1.5649         estimate D2E/DX2                !
 ! R28   R(13,39)                1.1068         estimate D2E/DX2                !
 ! R29   R(14,15)                1.2253         estimate D2E/DX2                !
 ! R30   R(14,18)                1.365          estimate D2E/DX2                !
 ! R31   R(16,17)                1.9001         estimate D2E/DX2                !
 ! R32   R(16,37)                1.1139         estimate D2E/DX2                !
 ! R33   R(16,38)                1.1086         estimate D2E/DX2                !
 ! R34   R(18,19)                1.4663         estimate D2E/DX2                !
 ! R35   R(18,44)                1.0186         estimate D2E/DX2                !
 ! R36   R(19,20)                1.5496         estimate D2E/DX2                !
 ! R37   R(19,21)                1.5462         estimate D2E/DX2                !
 ! R38   R(19,43)                1.0903         estimate D2E/DX2                !
 ! R39   R(20,41)                1.0981         estimate D2E/DX2                !
 ! R40   R(20,42)                1.0917         estimate D2E/DX2                !
 ! R41   R(20,49)                1.9797         estimate D2E/DX2                !
 ! R42   R(21,22)                1.2267         estimate D2E/DX2                !
 ! R43   R(21,23)                1.3743         estimate D2E/DX2                !
 ! R44   R(23,24)                1.4519         estimate D2E/DX2                !
 ! R45   R(23,47)                1.023          estimate D2E/DX2                !
 ! R46   R(24,25)                1.5221         estimate D2E/DX2                !
 ! R47   R(24,45)                1.0983         estimate D2E/DX2                !
 ! R48   R(24,46)                1.0896         estimate D2E/DX2                !
 ! R49   R(25,26)                1.2104         estimate D2E/DX2                !
 ! R50   R(25,27)                1.3439         estimate D2E/DX2                !
 ! R51   R(27,48)                1.0044         estimate D2E/DX2                !
 ! R52   R(51,52)                1.532          estimate D2E/DX2                !
 ! R53   R(51,55)                1.5307         estimate D2E/DX2                !
 ! R54   R(51,58)                1.0898         estimate D2E/DX2                !
 ! R55   R(51,59)                1.1009         estimate D2E/DX2                !
 ! R56   R(52,56)                1.0917         estimate D2E/DX2                !
 ! R57   R(52,57)                1.0939         estimate D2E/DX2                !
 ! R58   R(52,66)                1.8452         estimate D2E/DX2                !
 ! R59   R(53,54)                1.5254         estimate D2E/DX2                !
 ! R60   R(53,60)                1.0976         estimate D2E/DX2                !
 ! R61   R(53,61)                1.0946         estimate D2E/DX2                !
 ! R62   R(53,66)                1.8523         estimate D2E/DX2                !
 ! R63   R(54,55)                1.5379         estimate D2E/DX2                !
 ! R64   R(54,62)                1.0983         estimate D2E/DX2                !
 ! R65   R(54,63)                1.1049         estimate D2E/DX2                !
 ! R66   R(55,64)                1.0933         estimate D2E/DX2                !
 ! R67   R(55,65)                1.0977         estimate D2E/DX2                !
 ! A1    A(17,1,49)             76.4455         estimate D2E/DX2                !
 ! A2    A(17,1,66)             91.4541         estimate D2E/DX2                !
 ! A3    A(49,1,50)            100.4626         estimate D2E/DX2                !
 ! A4    A(50,1,66)             92.3486         estimate D2E/DX2                !
 ! A5    A(3,2,32)             107.7343         estimate D2E/DX2                !
 ! A6    A(3,2,33)             110.7552         estimate D2E/DX2                !
 ! A7    A(32,2,33)            106.1303         estimate D2E/DX2                !
 ! A8    A(2,3,4)              112.2168         estimate D2E/DX2                !
 ! A9    A(2,3,6)              108.4388         estimate D2E/DX2                !
 ! A10   A(2,3,31)             108.1239         estimate D2E/DX2                !
 ! A11   A(4,3,6)              108.0226         estimate D2E/DX2                !
 ! A12   A(4,3,31)             111.4214         estimate D2E/DX2                !
 ! A13   A(6,3,31)             108.517          estimate D2E/DX2                !
 ! A14   A(3,4,5)              118.4375         estimate D2E/DX2                !
 ! A15   A(3,4,8)              121.5517         estimate D2E/DX2                !
 ! A16   A(5,4,8)              120.0071         estimate D2E/DX2                !
 ! A17   A(3,6,7)              113.4393         estimate D2E/DX2                !
 ! A18   A(3,6,28)             107.5608         estimate D2E/DX2                !
 ! A19   A(3,6,29)             108.7922         estimate D2E/DX2                !
 ! A20   A(7,6,28)             112.9177         estimate D2E/DX2                !
 ! A21   A(7,6,29)             106.3032         estimate D2E/DX2                !
 ! A22   A(28,6,29)            107.6207         estimate D2E/DX2                !
 ! A23   A(6,7,30)             108.3829         estimate D2E/DX2                !
 ! A24   A(4,8,9)              128.9686         estimate D2E/DX2                !
 ! A25   A(4,8,36)             113.5926         estimate D2E/DX2                !
 ! A26   A(9,8,36)             117.4013         estimate D2E/DX2                !
 ! A27   A(8,9,10)             114.285          estimate D2E/DX2                !
 ! A28   A(8,9,34)             110.4833         estimate D2E/DX2                !
 ! A29   A(8,9,35)             107.296          estimate D2E/DX2                !
 ! A30   A(10,9,34)            105.9341         estimate D2E/DX2                !
 ! A31   A(10,9,35)            111.1919         estimate D2E/DX2                !
 ! A32   A(34,9,35)            107.4828         estimate D2E/DX2                !
 ! A33   A(9,10,11)            119.5216         estimate D2E/DX2                !
 ! A34   A(9,10,12)            119.7932         estimate D2E/DX2                !
 ! A35   A(11,10,12)           120.6782         estimate D2E/DX2                !
 ! A36   A(10,12,13)           131.5212         estimate D2E/DX2                !
 ! A37   A(10,12,40)           112.3426         estimate D2E/DX2                !
 ! A38   A(13,12,40)           113.4032         estimate D2E/DX2                !
 ! A39   A(12,13,14)           117.669          estimate D2E/DX2                !
 ! A40   A(12,13,16)           110.9222         estimate D2E/DX2                !
 ! A41   A(12,13,39)           110.3694         estimate D2E/DX2                !
 ! A42   A(14,13,16)           108.003          estimate D2E/DX2                !
 ! A43   A(14,13,39)           103.5261         estimate D2E/DX2                !
 ! A44   A(16,13,39)           105.4653         estimate D2E/DX2                !
 ! A45   A(13,14,15)           118.9348         estimate D2E/DX2                !
 ! A46   A(13,14,18)           117.2402         estimate D2E/DX2                !
 ! A47   A(15,14,18)           123.5651         estimate D2E/DX2                !
 ! A48   A(13,16,17)           122.2159         estimate D2E/DX2                !
 ! A49   A(13,16,37)           106.6888         estimate D2E/DX2                !
 ! A50   A(13,16,38)           109.4948         estimate D2E/DX2                !
 ! A51   A(17,16,37)            97.6853         estimate D2E/DX2                !
 ! A52   A(17,16,38)           110.1772         estimate D2E/DX2                !
 ! A53   A(37,16,38)           109.414          estimate D2E/DX2                !
 ! A54   A(1,17,16)            123.8294         estimate D2E/DX2                !
 ! A55   A(14,18,19)           120.1387         estimate D2E/DX2                !
 ! A56   A(14,18,44)           117.7315         estimate D2E/DX2                !
 ! A57   A(19,18,44)           117.4463         estimate D2E/DX2                !
 ! A58   A(18,19,20)           113.7798         estimate D2E/DX2                !
 ! A59   A(18,19,21)           111.1341         estimate D2E/DX2                !
 ! A60   A(18,19,43)           104.7803         estimate D2E/DX2                !
 ! A61   A(20,19,21)           107.793          estimate D2E/DX2                !
 ! A62   A(20,19,43)           109.7156         estimate D2E/DX2                !
 ! A63   A(21,19,43)           109.5835         estimate D2E/DX2                !
 ! A64   A(19,20,41)           108.531          estimate D2E/DX2                !
 ! A65   A(19,20,42)           111.1927         estimate D2E/DX2                !
 ! A66   A(19,20,49)           113.516          estimate D2E/DX2                !
 ! A67   A(41,20,42)           105.2603         estimate D2E/DX2                !
 ! A68   A(41,20,49)           108.8763         estimate D2E/DX2                !
 ! A69   A(42,20,49)           109.1109         estimate D2E/DX2                !
 ! A70   A(19,21,22)           121.1503         estimate D2E/DX2                !
 ! A71   A(19,21,23)           117.914          estimate D2E/DX2                !
 ! A72   A(22,21,23)           120.8654         estimate D2E/DX2                !
 ! A73   A(21,23,24)           127.5605         estimate D2E/DX2                !
 ! A74   A(21,23,47)           111.1092         estimate D2E/DX2                !
 ! A75   A(24,23,47)           113.3933         estimate D2E/DX2                !
 ! A76   A(23,24,25)           110.4941         estimate D2E/DX2                !
 ! A77   A(23,24,45)           109.7482         estimate D2E/DX2                !
 ! A78   A(23,24,46)           111.187          estimate D2E/DX2                !
 ! A79   A(25,24,45)           107.6759         estimate D2E/DX2                !
 ! A80   A(25,24,46)           111.1221         estimate D2E/DX2                !
 ! A81   A(45,24,46)           106.4661         estimate D2E/DX2                !
 ! A82   A(24,25,26)           123.1132         estimate D2E/DX2                !
 ! A83   A(24,25,27)           112.1867         estimate D2E/DX2                !
 ! A84   A(26,25,27)           124.685          estimate D2E/DX2                !
 ! A85   A(25,27,48)           108.4497         estimate D2E/DX2                !
 ! A86   A(1,49,20)             99.1665         estimate D2E/DX2                !
 ! A87   A(52,51,55)           113.9336         estimate D2E/DX2                !
 ! A88   A(52,51,58)           109.0418         estimate D2E/DX2                !
 ! A89   A(52,51,59)           106.6501         estimate D2E/DX2                !
 ! A90   A(55,51,58)           110.8433         estimate D2E/DX2                !
 ! A91   A(55,51,59)           109.5523         estimate D2E/DX2                !
 ! A92   A(58,51,59)           106.4753         estimate D2E/DX2                !
 ! A93   A(51,52,56)           111.8935         estimate D2E/DX2                !
 ! A94   A(51,52,57)           111.6005         estimate D2E/DX2                !
 ! A95   A(51,52,66)           114.0526         estimate D2E/DX2                !
 ! A96   A(56,52,57)           108.7596         estimate D2E/DX2                !
 ! A97   A(56,52,66)           105.2749         estimate D2E/DX2                !
 ! A98   A(57,52,66)           104.7843         estimate D2E/DX2                !
 ! A99   A(54,53,60)           112.1109         estimate D2E/DX2                !
 ! A100  A(54,53,61)           111.9891         estimate D2E/DX2                !
 ! A101  A(54,53,66)           113.7534         estimate D2E/DX2                !
 ! A102  A(60,53,61)           108.2209         estimate D2E/DX2                !
 ! A103  A(60,53,66)           105.3163         estimate D2E/DX2                !
 ! A104  A(61,53,66)           104.9285         estimate D2E/DX2                !
 ! A105  A(53,54,55)           113.5299         estimate D2E/DX2                !
 ! A106  A(53,54,62)           108.3457         estimate D2E/DX2                !
 ! A107  A(53,54,63)           108.5265         estimate D2E/DX2                !
 ! A108  A(55,54,62)           110.6111         estimate D2E/DX2                !
 ! A109  A(55,54,63)           109.0548         estimate D2E/DX2                !
 ! A110  A(62,54,63)           106.517          estimate D2E/DX2                !
 ! A111  A(51,55,54)           112.5203         estimate D2E/DX2                !
 ! A112  A(51,55,64)           110.2809         estimate D2E/DX2                !
 ! A113  A(51,55,65)           109.2036         estimate D2E/DX2                !
 ! A114  A(54,55,64)           109.2278         estimate D2E/DX2                !
 ! A115  A(54,55,65)           108.5233         estimate D2E/DX2                !
 ! A116  A(64,55,65)           106.9122         estimate D2E/DX2                !
 ! A117  A(1,66,52)            109.2584         estimate D2E/DX2                !
 ! A118  A(1,66,53)            101.5946         estimate D2E/DX2                !
 ! A119  A(52,66,53)           100.2303         estimate D2E/DX2                !
 ! A120  L(17,1,50,66,-1)      183.8027         estimate D2E/DX2                !
 ! A121  L(49,1,66,50,-1)      192.8112         estimate D2E/DX2                !
 ! A122  L(17,1,50,66,-2)      175.1139         estimate D2E/DX2                !
 ! A123  L(49,1,66,50,-2)      172.6561         estimate D2E/DX2                !
 ! D1    D(49,1,17,16)          32.7591         estimate D2E/DX2                !
 ! D2    D(66,1,17,16)        -155.7653         estimate D2E/DX2                !
 ! D3    D(17,1,49,20)        -126.8532         estimate D2E/DX2                !
 ! D4    D(50,1,49,20)          47.6628         estimate D2E/DX2                !
 ! D5    D(20,49,66,52)         19.0518         estimate D2E/DX2                !
 ! D6    D(20,49,66,53)        -87.6218         estimate D2E/DX2                !
 ! D7    D(17,1,66,52)         146.4614         estimate D2E/DX2                !
 ! D8    D(17,1,66,53)          41.1695         estimate D2E/DX2                !
 ! D9    D(50,1,66,52)         -28.6526         estimate D2E/DX2                !
 ! D10   D(50,1,66,53)        -133.9444         estimate D2E/DX2                !
 ! D11   D(32,2,3,4)            45.3136         estimate D2E/DX2                !
 ! D12   D(32,2,3,6)           -73.9261         estimate D2E/DX2                !
 ! D13   D(32,2,3,31)          168.5979         estimate D2E/DX2                !
 ! D14   D(33,2,3,4)           -70.3522         estimate D2E/DX2                !
 ! D15   D(33,2,3,6)           170.4081         estimate D2E/DX2                !
 ! D16   D(33,2,3,31)           52.9321         estimate D2E/DX2                !
 ! D17   D(2,3,4,5)            -44.3051         estimate D2E/DX2                !
 ! D18   D(2,3,4,8)            134.9916         estimate D2E/DX2                !
 ! D19   D(6,3,4,5)             75.1783         estimate D2E/DX2                !
 ! D20   D(6,3,4,8)           -105.525          estimate D2E/DX2                !
 ! D21   D(31,3,4,5)          -165.7174         estimate D2E/DX2                !
 ! D22   D(31,3,4,8)            13.5793         estimate D2E/DX2                !
 ! D23   D(2,3,6,7)            174.5494         estimate D2E/DX2                !
 ! D24   D(2,3,6,28)           -59.8322         estimate D2E/DX2                !
 ! D25   D(2,3,6,29)            56.4681         estimate D2E/DX2                !
 ! D26   D(4,3,6,7)             52.705          estimate D2E/DX2                !
 ! D27   D(4,3,6,28)           178.3233         estimate D2E/DX2                !
 ! D28   D(4,3,6,29)           -65.3764         estimate D2E/DX2                !
 ! D29   D(31,3,6,7)           -68.2262         estimate D2E/DX2                !
 ! D30   D(31,3,6,28)           57.3922         estimate D2E/DX2                !
 ! D31   D(31,3,6,29)          173.6924         estimate D2E/DX2                !
 ! D32   D(3,4,8,9)             -2.1676         estimate D2E/DX2                !
 ! D33   D(3,4,8,36)           175.5175         estimate D2E/DX2                !
 ! D34   D(5,4,8,9)            177.1182         estimate D2E/DX2                !
 ! D35   D(5,4,8,36)            -5.1966         estimate D2E/DX2                !
 ! D36   D(3,6,7,30)            60.9629         estimate D2E/DX2                !
 ! D37   D(28,6,7,30)          -61.7435         estimate D2E/DX2                !
 ! D38   D(29,6,7,30)         -179.5237         estimate D2E/DX2                !
 ! D39   D(4,8,9,10)            87.089          estimate D2E/DX2                !
 ! D40   D(4,8,9,34)           -32.2553         estimate D2E/DX2                !
 ! D41   D(4,8,9,35)          -149.1405         estimate D2E/DX2                !
 ! D42   D(36,8,9,10)          -90.5216         estimate D2E/DX2                !
 ! D43   D(36,8,9,34)          150.1341         estimate D2E/DX2                !
 ! D44   D(36,8,9,35)           33.2489         estimate D2E/DX2                !
 ! D45   D(8,9,10,11)          -95.8709         estimate D2E/DX2                !
 ! D46   D(8,9,10,12)           83.177          estimate D2E/DX2                !
 ! D47   D(34,9,10,11)          26.0038         estimate D2E/DX2                !
 ! D48   D(34,9,10,12)        -154.9484         estimate D2E/DX2                !
 ! D49   D(35,9,10,11)         142.4767         estimate D2E/DX2                !
 ! D50   D(35,9,10,12)         -38.4754         estimate D2E/DX2                !
 ! D51   D(9,10,12,13)          13.9826         estimate D2E/DX2                !
 ! D52   D(9,10,12,40)         173.6123         estimate D2E/DX2                !
 ! D53   D(11,10,12,13)       -166.9807         estimate D2E/DX2                !
 ! D54   D(11,10,12,40)         -7.351          estimate D2E/DX2                !
 ! D55   D(10,12,13,14)       -103.3596         estimate D2E/DX2                !
 ! D56   D(10,12,13,16)        131.6067         estimate D2E/DX2                !
 ! D57   D(10,12,13,39)         15.0896         estimate D2E/DX2                !
 ! D58   D(40,12,13,14)         97.1776         estimate D2E/DX2                !
 ! D59   D(40,12,13,16)        -27.8561         estimate D2E/DX2                !
 ! D60   D(40,12,13,39)       -144.3732         estimate D2E/DX2                !
 ! D61   D(12,13,14,15)        148.7771         estimate D2E/DX2                !
 ! D62   D(12,13,14,18)        -36.8697         estimate D2E/DX2                !
 ! D63   D(16,13,14,15)        -84.756          estimate D2E/DX2                !
 ! D64   D(16,13,14,18)         89.5972         estimate D2E/DX2                !
 ! D65   D(39,13,14,15)         26.7474         estimate D2E/DX2                !
 ! D66   D(39,13,14,18)       -158.8994         estimate D2E/DX2                !
 ! D67   D(12,13,16,17)         29.4778         estimate D2E/DX2                !
 ! D68   D(12,13,16,37)        -81.2501         estimate D2E/DX2                !
 ! D69   D(12,13,16,38)        160.4396         estimate D2E/DX2                !
 ! D70   D(14,13,16,17)       -100.8361         estimate D2E/DX2                !
 ! D71   D(14,13,16,37)        148.436          estimate D2E/DX2                !
 ! D72   D(14,13,16,38)         30.1257         estimate D2E/DX2                !
 ! D73   D(39,13,16,17)        148.9772         estimate D2E/DX2                !
 ! D74   D(39,13,16,37)         38.2493         estimate D2E/DX2                !
 ! D75   D(39,13,16,38)        -80.0609         estimate D2E/DX2                !
 ! D76   D(13,14,18,19)       -148.8158         estimate D2E/DX2                !
 ! D77   D(13,14,18,44)          6.3256         estimate D2E/DX2                !
 ! D78   D(15,14,18,19)         25.2524         estimate D2E/DX2                !
 ! D79   D(15,14,18,44)       -179.6062         estimate D2E/DX2                !
 ! D80   D(13,16,17,1)          68.4954         estimate D2E/DX2                !
 ! D81   D(37,16,17,1)        -176.1931         estimate D2E/DX2                !
 ! D82   D(38,16,17,1)         -62.1815         estimate D2E/DX2                !
 ! D83   D(14,18,19,20)        106.0799         estimate D2E/DX2                !
 ! D84   D(14,18,19,21)       -132.027          estimate D2E/DX2                !
 ! D85   D(14,18,19,43)        -13.7564         estimate D2E/DX2                !
 ! D86   D(44,18,19,20)        -49.1305         estimate D2E/DX2                !
 ! D87   D(44,18,19,21)         72.7626         estimate D2E/DX2                !
 ! D88   D(44,18,19,43)       -168.9667         estimate D2E/DX2                !
 ! D89   D(18,19,20,41)       -165.9409         estimate D2E/DX2                !
 ! D90   D(18,19,20,42)         78.7376         estimate D2E/DX2                !
 ! D91   D(18,19,20,49)        -44.7439         estimate D2E/DX2                !
 ! D92   D(21,19,20,41)         70.3341         estimate D2E/DX2                !
 ! D93   D(21,19,20,42)        -44.9874         estimate D2E/DX2                !
 ! D94   D(21,19,20,49)       -168.4689         estimate D2E/DX2                !
 ! D95   D(43,19,20,41)        -48.9374         estimate D2E/DX2                !
 ! D96   D(43,19,20,42)       -164.2589         estimate D2E/DX2                !
 ! D97   D(43,19,20,49)         72.2596         estimate D2E/DX2                !
 ! D98   D(18,19,21,22)       -103.7944         estimate D2E/DX2                !
 ! D99   D(18,19,21,23)         79.23           estimate D2E/DX2                !
 ! D100  D(20,19,21,22)         21.5207         estimate D2E/DX2                !
 ! D101  D(20,19,21,23)       -155.4549         estimate D2E/DX2                !
 ! D102  D(43,19,21,22)        140.8762         estimate D2E/DX2                !
 ! D103  D(43,19,21,23)        -36.0994         estimate D2E/DX2                !
 ! D104  D(19,20,49,1)         107.6497         estimate D2E/DX2                !
 ! D105  D(41,20,49,1)        -131.3471         estimate D2E/DX2                !
 ! D106  D(42,20,49,1)         -16.9624         estimate D2E/DX2                !
 ! D107  D(19,21,23,24)        -24.8406         estimate D2E/DX2                !
 ! D108  D(19,21,23,47)       -171.3286         estimate D2E/DX2                !
 ! D109  D(22,21,23,24)        158.1748         estimate D2E/DX2                !
 ! D110  D(22,21,23,47)         11.6868         estimate D2E/DX2                !
 ! D111  D(21,23,24,25)        -97.8606         estimate D2E/DX2                !
 ! D112  D(21,23,24,45)        143.5463         estimate D2E/DX2                !
 ! D113  D(21,23,24,46)         26.0206         estimate D2E/DX2                !
 ! D114  D(47,23,24,25)         48.0012         estimate D2E/DX2                !
 ! D115  D(47,23,24,45)        -70.592          estimate D2E/DX2                !
 ! D116  D(47,23,24,46)        171.8823         estimate D2E/DX2                !
 ! D117  D(23,24,25,26)        -18.5544         estimate D2E/DX2                !
 ! D118  D(23,24,25,27)        162.8007         estimate D2E/DX2                !
 ! D119  D(45,24,25,26)        101.2937         estimate D2E/DX2                !
 ! D120  D(45,24,25,27)        -77.3512         estimate D2E/DX2                !
 ! D121  D(46,24,25,26)       -142.4729         estimate D2E/DX2                !
 ! D122  D(46,24,25,27)         38.8821         estimate D2E/DX2                !
 ! D123  D(24,25,27,48)       -176.6059         estimate D2E/DX2                !
 ! D124  D(26,25,27,48)          4.7744         estimate D2E/DX2                !
 ! D125  D(55,51,52,56)         62.7448         estimate D2E/DX2                !
 ! D126  D(55,51,52,57)       -175.122          estimate D2E/DX2                !
 ! D127  D(55,51,52,66)        -56.6148         estimate D2E/DX2                !
 ! D128  D(58,51,52,56)       -172.8523         estimate D2E/DX2                !
 ! D129  D(58,51,52,57)        -50.7191         estimate D2E/DX2                !
 ! D130  D(58,51,52,66)         67.7881         estimate D2E/DX2                !
 ! D131  D(59,51,52,56)        -58.2468         estimate D2E/DX2                !
 ! D132  D(59,51,52,57)         63.8864         estimate D2E/DX2                !
 ! D133  D(59,51,52,66)       -177.6064         estimate D2E/DX2                !
 ! D134  D(52,51,55,54)         61.2955         estimate D2E/DX2                !
 ! D135  D(52,51,55,64)        -60.9326         estimate D2E/DX2                !
 ! D136  D(52,51,55,65)       -178.1339         estimate D2E/DX2                !
 ! D137  D(58,51,55,54)        -62.1352         estimate D2E/DX2                !
 ! D138  D(58,51,55,64)        175.6367         estimate D2E/DX2                !
 ! D139  D(58,51,55,65)         58.4354         estimate D2E/DX2                !
 ! D140  D(59,51,55,54)       -179.3447         estimate D2E/DX2                !
 ! D141  D(59,51,55,64)         58.4272         estimate D2E/DX2                !
 ! D142  D(59,51,55,65)        -58.7741         estimate D2E/DX2                !
 ! D143  D(51,52,66,1)         -60.192          estimate D2E/DX2                !
 ! D144  D(51,52,66,53)         46.032          estimate D2E/DX2                !
 ! D145  D(56,52,66,1)         176.7707         estimate D2E/DX2                !
 ! D146  D(56,52,66,53)        -77.0052         estimate D2E/DX2                !
 ! D147  D(57,52,66,1)          62.1338         estimate D2E/DX2                !
 ! D148  D(57,52,66,53)        168.3579         estimate D2E/DX2                !
 ! D149  D(60,53,54,55)        -61.5617         estimate D2E/DX2                !
 ! D150  D(60,53,54,62)         61.7296         estimate D2E/DX2                !
 ! D151  D(60,53,54,63)        177.0081         estimate D2E/DX2                !
 ! D152  D(61,53,54,55)        176.5653         estimate D2E/DX2                !
 ! D153  D(61,53,54,62)        -60.1433         estimate D2E/DX2                !
 ! D154  D(61,53,54,63)         55.1351         estimate D2E/DX2                !
 ! D155  D(66,53,54,55)         57.7986         estimate D2E/DX2                !
 ! D156  D(66,53,54,62)       -178.91           estimate D2E/DX2                !
 ! D157  D(66,53,54,63)        -63.6316         estimate D2E/DX2                !
 ! D158  D(54,53,66,1)          65.5191         estimate D2E/DX2                !
 ! D159  D(54,53,66,52)        -46.763          estimate D2E/DX2                !
 ! D160  D(60,53,66,1)        -171.3256         estimate D2E/DX2                !
 ! D161  D(60,53,66,52)         76.3922         estimate D2E/DX2                !
 ! D162  D(61,53,66,1)         -57.2126         estimate D2E/DX2                !
 ! D163  D(61,53,66,52)       -169.4947         estimate D2E/DX2                !
 ! D164  D(53,54,55,51)        -62.0328         estimate D2E/DX2                !
 ! D165  D(53,54,55,64)         60.7885         estimate D2E/DX2                !
 ! D166  D(53,54,55,65)        177.0061         estimate D2E/DX2                !
 ! D167  D(62,54,55,51)        175.9256         estimate D2E/DX2                !
 ! D168  D(62,54,55,64)        -61.2531         estimate D2E/DX2                !
 ! D169  D(62,54,55,65)         54.9646         estimate D2E/DX2                !
 ! D170  D(63,54,55,51)         59.1015         estimate D2E/DX2                !
 ! D171  D(63,54,55,64)       -178.0772         estimate D2E/DX2                !
 ! D172  D(63,54,55,65)        -61.8595         estimate D2E/DX2                !
 --------------------------------------------------------------------------------
 Trust Radius=3.00D-01 FncErr=1.00D-07 GrdErr=1.00D-06
 Number of steps in this run=    372 maximum allowed number of steps=    396.
 GradGradGradGradGradGradGradGradGradGradGradGradGradGradGradGradGradGrad

 Stoichiometry    C18H31AuClN5O7S2Se
 Framework group  C1[X(C18H31AuClN5O7S2Se)]
 Deg. of freedom   192
 Full point group                 C1      NOp   1
 Largest Abelian subgroup         C1      NOp   1
 Largest concise Abelian subgroup C1      NOp   1
                         Standard orientation:                         
 ---------------------------------------------------------------------
 Center     Atomic      Atomic             Coordinates (Angstroms)
 Number     Number       Type             X           Y           Z
 ---------------------------------------------------------------------
      1         79           0        2.942241    0.012765   -0.165884
      2          7           0       -7.097485    2.873802    0.186171
      3          6           0       -5.683071    2.532871    0.063175
      4          6           0       -5.467252    1.035544   -0.187796
      5          8           0       -6.121938    0.220973    0.487964
      6          6           0       -4.975173    2.902579    1.383880
      7          8           0       -3.621386    2.504223    1.426040
      8          7           0       -4.590452    0.587923   -1.138172
      9          6           0       -3.780248    1.354441   -2.064549
     10          6           0       -2.412109    1.788727   -1.501209
     11          8           0       -2.286682    2.911226   -1.009808
     12          7           0       -1.362268    0.923872   -1.533673
     13          6           0       -1.164060   -0.320875   -2.250692
     14          6           0       -1.300662   -1.635451   -1.455090
     15          8           0       -1.711371   -2.636445   -2.030116
     16          6           0        0.224097   -0.334743   -2.973078
     17         16           0        1.724314    0.619604   -2.302988
     18          7           0       -0.840501   -1.638699   -0.170040
     19          6           0       -0.297058   -2.868877    0.414260
     20          6           0        1.246022   -2.864769    0.555716
     21          6           0       -0.899065   -3.134762    1.813365
     22          8           0       -0.254069   -2.916219    2.833681
     23          7           0       -2.157258   -3.683768    1.878655
     24          6           0       -3.207224   -3.611956    0.878497
     25          6           0       -4.195521   -2.506359    1.221791
     26          8           0       -4.292222   -2.026113    2.328627
     27          8           0       -4.953397   -2.157918    0.168045
     28          1           0       -5.108763    3.982525    1.540824
     29          1           0       -5.471929    2.385835    2.205164
     30          1           0       -3.144154    2.957628    0.704034
     31          1           0       -5.257835    3.135563   -0.737498
     32          1           0       -7.532117    2.181352    0.796375
     33          1           0       -7.567917    2.792959   -0.713828
     34          1           0       -4.289148    2.268051   -2.346949
     35          1           0       -3.660972    0.746454   -2.976210
     36          1           0       -4.487499   -0.432533   -1.153648
     37          1           0        0.096729    0.234982   -3.921734
     38          1           0        0.509193   -1.380248   -3.206590
     39          1           0       -1.916633   -0.425948   -3.055466
     40          1           0       -0.487712    1.361419   -1.228616
     41          1           0        1.580895   -3.891294    0.755566
     42          1           0        1.561053   -2.285252    1.425650
     43          1           0       -0.601480   -3.660360   -0.270984
     44          1           0       -0.525433   -0.753301    0.222832
     45          1           0       -3.762053   -4.559505    0.854216
     46          1           0       -2.791948   -3.471578   -0.119021
     47          1           0       -2.510211   -3.682997    2.838872
     48          1           0       -5.542576   -1.391235    0.439906
     49         34           0        2.184593   -2.186012   -1.049715
     50         17           0        3.882496   -0.669454    1.966657
     51          6           0        2.551233    2.703186    2.636406
     52          6           0        3.890379    2.790230    1.897473
     53          6           0        2.291020    3.364646   -0.374517
     54          6           0        1.116892    3.201567    0.585593
     55          6           0        1.452652    3.584459    2.036722
     56          1           0        4.313608    3.795687    1.938970
     57          1           0        4.620775    2.084070    2.303072
     58          1           0        2.234086    1.661280    2.676077
     59          1           0        2.743908    3.010683    3.675764
     60          1           0        2.635405    4.405145   -0.433019
     61          1           0        2.042760    3.028909   -1.386300
     62          1           0        0.278011    3.803429    0.211161
     63          1           0        0.784628    2.148176    0.558132
     64          1           0        1.748956    4.636197    2.072217
     65          1           0        0.542139    3.488614    2.642256
     66         16           0        3.786295    2.380367    0.101426
 ---------------------------------------------------------------------
 Rotational constants (GHZ):      0.1062500      0.0515550      0.0437131
 General basis read from cards:  (5D, 7F)
 ======================================================================================================
                                       Pseudopotential Parameters
 ======================================================================================================
  Center     Atomic      Valence      Angular      Power
  Number     Number     Electrons     Momentum     of R      Exponent        Coefficient   SO-Coeffient
 ======================================================================================================
    1         79           19
                                      G and up 
                                                     1      622.6287956      -60.00000000    0.00000000
                                                     2      136.2843607     -555.52923120    0.00000000
                                                     2       33.1549781     -168.00197850    0.00000000
                                                     2        9.9894895      -63.03998750    0.00000000
                                                     2        3.0481312       -4.25166810    0.00000000
                                      S - G
                                                     0      194.7374304        3.00000000    0.00000000
                                                     1      351.5327447       38.60208800    0.00000000
                                                     2      122.3270402      864.83707270    0.00000000
                                                     2       32.0914617      374.99355200    0.00000000
                                                     2        5.2451812      289.79101000    0.00000000
                                                     2        4.4916223     -152.45327730    0.00000000
                                      P - G
                                                     0      420.6158801        2.00000000    0.00000000
                                                     1      109.4417815       73.88856250    0.00000000
                                                     2       34.1714280      326.67298720    0.00000000
                                                     2        5.9879750      126.58145910    0.00000000
                                      D - G
                                                     0      219.2666158        3.00000000    0.00000000
                                                     1      122.7297786       55.67931490    0.00000000
                                                     2       63.1063369      449.19873350    0.00000000
                                                     2       18.3684520      215.02690910    0.00000000
                                                     2        4.4972844       64.08409950    0.00000000
                                      F - G
                                                     0      108.5506037        4.00000000    0.00000000
                                                     1       56.4795527       51.80653350    0.00000000
                                                     2       29.2069159      231.21831130    0.00000000
                                                     2        9.5440543      119.00473860    0.00000000
                                                     2        2.8965118       15.34241880    0.00000000
    2          7
                                   No pseudopotential on this center.
    3          6
                                   No pseudopotential on this center.
    4          6
                                   No pseudopotential on this center.
    5          8
                                   No pseudopotential on this center.
    6          6
                                   No pseudopotential on this center.
    7          8
                                   No pseudopotential on this center.
    8          7
                                   No pseudopotential on this center.
    9          6
                                   No pseudopotential on this center.
   10          6
                                   No pseudopotential on this center.
   11          8
                                   No pseudopotential on this center.
   12          7
                                   No pseudopotential on this center.
   13          6
                                   No pseudopotential on this center.
   14          6
                                   No pseudopotential on this center.
   15          8
                                   No pseudopotential on this center.
   16          6
                                   No pseudopotential on this center.
   17         16
                                   No pseudopotential on this center.
   18          7
                                   No pseudopotential on this center.
   19          6
                                   No pseudopotential on this center.
   20          6
                                   No pseudopotential on this center.
   21          6
                                   No pseudopotential on this center.
   22          8
                                   No pseudopotential on this center.
   23          7
                                   No pseudopotential on this center.
   24          6
                                   No pseudopotential on this center.
   25          6
                                   No pseudopotential on this center.
   26          8
                                   No pseudopotential on this center.
   27          8
                                   No pseudopotential on this center.
   28          1
                                   No pseudopotential on this center.
   29          1
                                   No pseudopotential on this center.
   30          1
                                   No pseudopotential on this center.
   31          1
                                   No pseudopotential on this center.
   32          1
                                   No pseudopotential on this center.
   33          1
                                   No pseudopotential on this center.
   34          1
                                   No pseudopotential on this center.
   35          1
                                   No pseudopotential on this center.
   36          1
                                   No pseudopotential on this center.
   37          1
                                   No pseudopotential on this center.
   38          1
                                   No pseudopotential on this center.
   39          1
                                   No pseudopotential on this center.
   40          1
                                   No pseudopotential on this center.
   41          1
                                   No pseudopotential on this center.
   42          1
                                   No pseudopotential on this center.
   43          1
                                   No pseudopotential on this center.
   44          1
                                   No pseudopotential on this center.
   45          1
                                   No pseudopotential on this center.
   46          1
                                   No pseudopotential on this center.
   47          1
                                   No pseudopotential on this center.
   48          1
                                   No pseudopotential on this center.
   49         34
                                   No pseudopotential on this center.
   50         17
                                   No pseudopotential on this center.
   51          6
                                   No pseudopotential on this center.
   52          6
                                   No pseudopotential on this center.
   53          6
                                   No pseudopotential on this center.
   54          6
                                   No pseudopotential on this center.
   55          6
                                   No pseudopotential on this center.
   56          1
                                   No pseudopotential on this center.
   57          1
                                   No pseudopotential on this center.
   58          1
                                   No pseudopotential on this center.
   59          1
                                   No pseudopotential on this center.
   60          1
                                   No pseudopotential on this center.
   61          1
                                   No pseudopotential on this center.
   62          1
                                   No pseudopotential on this center.
   63          1
                                   No pseudopotential on this center.
   64          1
                                   No pseudopotential on this center.
   65          1
                                   No pseudopotential on this center.
   66         16
                                   No pseudopotential on this center.
 ======================================================================================================
 There are   647 symmetry adapted cartesian basis functions of A   symmetry.
 There are   606 symmetry adapted basis functions of A   symmetry.
   606 basis functions,  1251 primitive gaussians,   647 cartesian basis functions
   166 alpha electrons      166 beta electrons
       nuclear repulsion energy      6106.9725122904 Hartrees.
 NAtoms=   66 NActive=   66 NUniq=   66 SFac= 1.00D+00 NAtFMM=   60 NAOKFM=T Big=T
 Integral buffers will be    131072 words long.
 Raffenetti 2 integral format.
 Two-electron integral symmetry is turned on.
 One-electron integrals computed using PRISM.
   1 Symmetry operations used in ECPInt.
 ECPInt:  NShTT=   24976 NPrTT=  152314 LenC2=   19666 LenP2D=   62515.
 LDataN:  DoStor=T MaxTD1= 7 Len=  274
 NBasis=   606 RedAO= T EigKep=  2.44D-03  NBF=   606
 NBsUse=   606 1.00D-06 EigRej= -1.00D+00 NBFU=   606
 Defaulting to unpruned grid for atomic number  79.
 ExpMin= 2.79D-02 ExpMax= 5.61D+05 ExpMxC= 5.42D+03 IAcc=3 IRadAn=         5 AccDes= 0.00D+00
 Harris functional with IExCor=  402 and IRadAn=       5 diagonalized for initial guess.
 HarFok:  IExCor=  402 AccDes= 0.00D+00 IRadAn=         5 IDoV= 1 UseB2=F ITyADJ=14
 ICtDFT=  3500011 ScaDFX=  1.000000  1.000000  1.000000  1.000000
 Defaulting to unpruned grid for atomic number  79.
 Defaulting to unpruned grid for atomic number  79.
 Defaulting to unpruned grid for atomic number  79.
 Defaulting to unpruned grid for atomic number  79.
 Defaulting to unpruned grid for atomic number  79.
 Defaulting to unpruned grid for atomic number  79.
 Defaulting to unpruned grid for atomic number  79.
 Defaulting to unpruned grid for atomic number  79.
 Defaulting to unpruned grid for atomic number  79.
 Defaulting to unpruned grid for atomic number  79.
 Defaulting to unpruned grid for atomic number  79.
 Defaulting to unpruned grid for atomic number  79.
 Defaulting to unpruned grid for atomic number  79.
 Defaulting to unpruned grid for atomic number  79.
 Defaulting to unpruned grid for atomic number  79.
 FoFCou: FMM=F IPFlag=           0 FMFlag=      100000 FMFlg1=        2001
         NFxFlg=           0 DoJE=T BraDBF=F KetDBF=T FulRan=T
         wScrn=  0.000000 ICntrl=     500 IOpCl=  0 I1Cent=   200000004 NGrid=           0
         NMat0=    1 NMatS0=      1 NMatT0=    0 NMatD0=    1 NMtDS0=    0 NMtDT0=    0
 Petite list used in FoFCou.
 Requested convergence on RMS density matrix=1.00D-08 within 128 cycles.
 Requested convergence on MAX density matrix=1.00D-06.
 Requested convergence on             energy=1.00D-06.
 No special actions if energy rises.
 Defaulting to unpruned grid for atomic number  79.
 Defaulting to unpruned grid for atomic number  79.
 Defaulting to unpruned grid for atomic number  79.
 Defaulting to unpruned grid for atomic number  79.
 Defaulting to unpruned grid for atomic number  79.
 Defaulting to unpruned grid for atomic number  79.
 Defaulting to unpruned grid for atomic number  79.
 Defaulting to unpruned grid for atomic number  79.
 Defaulting to unpruned grid for atomic number  79.
 Defaulting to unpruned grid for atomic number  79.
 Defaulting to unpruned grid for atomic number  79.
 Defaulting to unpruned grid for atomic number  79.
 Defaulting to unpruned grid for atomic number  79.
 Defaulting to unpruned grid for atomic number  79.
 Defaulting to unpruned grid for atomic number  79.
 EnCoef did     5 forward-backward iterations
 SCF Done:  E(RB3LYP) =  -5295.95151990     A.U. after   19 cycles
            NFock= 19  Conv=0.92D-08     -V/T= 2.0185

 **********************************************************************

            Population analysis using the SCF density.

 **********************************************************************

 Orbital symmetries:
       Occupied  (A) (A) (A) (A) (A) (A) (A) (A) (A) (A) (A) (A)
                 (A) (A) (A) (A) (A) (A) (A) (A) (A) (A) (A) (A)
                 (A) (A) (A) (A) (A) (A) (A) (A) (A) (A) (A) (A)
                 (A) (A) (A) (A) (A) (A) (A) (A) (A) (A) (A) (A)
                 (A) (A) (A) (A) (A) (A) (A) (A) (A) (A) (A) (A)
                 (A) (A) (A) (A) (A) (A) (A) (A) (A) (A) (A) (A)
                 (A) (A) (A) (A) (A) (A) (A) (A) (A) (A) (A) (A)
                 (A) (A) (A) (A) (A) (A) (A) (A) (A) (A) (A) (A)
                 (A) (A) (A) (A) (A) (A) (A) (A) (A) (A) (A) (A)
                 (A) (A) (A) (A) (A) (A) (A) (A) (A) (A) (A) (A)
                 (A) (A) (A) (A) (A) (A) (A) (A) (A) (A) (A) (A)
                 (A) (A) (A) (A) (A) (A) (A) (A) (A) (A) (A) (A)
                 (A) (A) (A) (A) (A) (A) (A) (A) (A) (A) (A) (A)
                 (A) (A) (A) (A) (A) (A) (A) (A) (A) (A)
       Virtual   (A) (A) (A) (A) (A) (A) (A) (A) (A) (A) (A) (A)
                 (A) (A) (A) (A) (A) (A) (A) (A) (A) (A) (A) (A)
                 (A) (A) (A) (A) (A) (A) (A) (A) (A) (A) (A) (A)
                 (A) (A) (A) (A) (A) (A) (A) (A) (A) (A) (A) (A)
                 (A) (A) (A) (A) (A) (A) (A) (A) (A) (A) (A) (A)
                 (A) (A) (A) (A) (A) (A) (A) (A) (A) (A) (A) (A)
                 (A) (A) (A) (A) (A) (A) (A) (A) (A) (A) (A) (A)
                 (A) (A) (A) (A) (A) (A) (A) (A) (A) (A) (A) (A)
                 (A) (A) (A) (A) (A) (A) (A) (A) (A) (A) (A) (A)
                 (A) (A) (A) (A) (A) (A) (A) (A) (A) (A) (A) (A)
                 (A) (A) (A) (A) (A) (A) (A) (A) (A) (A) (A) (A)
                 (A) (A) (A) (A) (A) (A) (A) (A) (A) (A) (A) (A)
                 (A) (A) (A) (A) (A) (A) (A) (A) (A) (A) (A) (A)
                 (A) (A) (A) (A) (A) (A) (A) (A) (A) (A) (A) (A)
                 (A) (A) (A) (A) (A) (A) (A) (A) (A) (A) (A) (A)
                 (A) (A) (A) (A) (A) (A) (A) (A) (A) (A) (A) (A)
                 (A) (A) (A) (A) (A) (A) (A) (A) (A) (A) (A) (A)
                 (A) (A) (A) (A) (A) (A) (A) (A) (A) (A) (A) (A)
                 (A) (A) (A) (A) (A) (A) (A) (A) (A) (A) (A) (A)
                 (A) (A) (A) (A) (A) (A) (A) (A) (A) (A) (A) (A)
                 (A) (A) (A) (A) (A) (A) (A) (A) (A) (A) (A) (A)
                 (A) (A) (A) (A) (A) (A) (A) (A) (A) (A) (A) (A)
                 (A) (A) (A) (A) (A) (A) (A) (A) (A) (A) (A) (A)
                 (A) (A) (A) (A) (A) (A) (A) (A) (A) (A) (A) (A)
                 (A) (A) (A) (A) (A) (A) (A) (A) (A) (A) (A) (A)
                 (A) (A) (A) (A) (A) (A) (A) (A) (A) (A) (A) (A)
                 (A) (A) (A) (A) (A) (A) (A) (A) (A) (A) (A) (A)
                 (A) (A) (A) (A) (A) (A) (A) (A) (A) (A) (A) (A)
                 (A) (A) (A) (A) (A) (A) (A) (A) (A) (A) (A) (A)
                 (A) (A) (A) (A) (A) (A) (A) (A) (A) (A) (A) (A)
                 (A) (A) (A) (A) (A) (A) (A) (A) (A) (A) (A) (A)
                 (A) (A) (A) (A) (A) (A) (A) (A) (A) (A) (A) (A)
                 (A) (A) (A) (A) (A) (A) (A) (A) (A) (A) (A) (A)
                 (A) (A) (A) (A) (A) (A) (A) (A) (A) (A) (A) (A)
                 (A) (A) (A) (A) (A) (A) (A) (A) (A) (A) (A) (A)
                 (A) (A) (A) (A) (A) (A) (A) (A) (A) (A) (A) (A)
                 (A) (A) (A) (A) (A) (A) (A) (A)
 The electronic state is 1-A.
 Alpha  occ. eigenvalues -- -453.57486-101.48382 -88.92951 -88.89324 -57.29412
 Alpha  occ. eigenvalues --  -52.06990 -52.06878 -52.06595 -19.17658 -19.15279
 Alpha  occ. eigenvalues --  -19.14361 -19.14093 -19.13049 -19.12724 -19.11665
 Alpha  occ. eigenvalues --  -14.39670 -14.38773 -14.38307 -14.35536 -14.31897
 Alpha  occ. eigenvalues --  -10.32821 -10.31363 -10.31223 -10.30845 -10.29101
 Alpha  occ. eigenvalues --  -10.27718 -10.26451 -10.25534 -10.24692 -10.24394
 Alpha  occ. eigenvalues --  -10.24128 -10.22905 -10.22708 -10.22213 -10.21490
 Alpha  occ. eigenvalues --  -10.21089 -10.20327 -10.20083  -9.41361  -8.00328
 Alpha  occ. eigenvalues --   -7.96531  -7.64453  -7.17512  -7.16818  -7.16790
 Alpha  occ. eigenvalues --   -5.96597  -5.96375  -5.95947  -5.92947  -5.92632
 Alpha  occ. eigenvalues --   -5.91970  -5.77543  -5.77138  -5.76120  -4.24116
 Alpha  occ. eigenvalues --   -2.38089  -2.37769  -2.35823  -2.13709  -2.13674
 Alpha  occ. eigenvalues --   -2.12834  -2.12510  -2.12327  -1.09469  -1.07581
 Alpha  occ. eigenvalues --   -1.06566  -1.05694  -1.03778  -1.00914  -1.00766
 Alpha  occ. eigenvalues --   -0.96897  -0.95065  -0.94676  -0.92224  -0.89733
 Alpha  occ. eigenvalues --   -0.87400  -0.81896  -0.79207  -0.79057  -0.78879
 Alpha  occ. eigenvalues --   -0.76655  -0.76195  -0.74329  -0.73805  -0.73356
 Alpha  occ. eigenvalues --   -0.70792  -0.66127  -0.65780  -0.65334  -0.64609
 Alpha  occ. eigenvalues --   -0.63302  -0.62359  -0.61392  -0.61032  -0.59124
 Alpha  occ. eigenvalues --   -0.58836  -0.58456  -0.56099  -0.54184  -0.53232
 Alpha  occ. eigenvalues --   -0.52784  -0.51069  -0.50851  -0.50667  -0.50355
 Alpha  occ. eigenvalues --   -0.49941  -0.48927  -0.48695  -0.48456  -0.47659
 Alpha  occ. eigenvalues --   -0.47584  -0.47005  -0.46854  -0.46443  -0.46016
 Alpha  occ. eigenvalues --   -0.45006  -0.44875  -0.44572  -0.43975  -0.43713
 Alpha  occ. eigenvalues --   -0.43262  -0.43081  -0.42943  -0.42821  -0.42500
 Alpha  occ. eigenvalues --   -0.42443  -0.42140  -0.41485  -0.41078  -0.40638
 Alpha  occ. eigenvalues --   -0.40281  -0.39709  -0.39225  -0.38871  -0.38809
 Alpha  occ. eigenvalues --   -0.38581  -0.38367  -0.38226  -0.38090  -0.37547
 Alpha  occ. eigenvalues --   -0.37184  -0.35992  -0.35786  -0.34647  -0.34366
 Alpha  occ. eigenvalues --   -0.33484  -0.32534  -0.31842  -0.31399  -0.30947
 Alpha  occ. eigenvalues --   -0.30919  -0.29552  -0.29169  -0.28947  -0.28930
 Alpha  occ. eigenvalues --   -0.27753  -0.27519  -0.27386  -0.27095  -0.26919
 Alpha  occ. eigenvalues --   -0.26394  -0.26028  -0.25757  -0.24915  -0.24780
 Alpha  occ. eigenvalues --   -0.22548
 Alpha virt. eigenvalues --   -0.14273  -0.04201  -0.03307  -0.02338  -0.01529
 Alpha virt. eigenvalues --   -0.00916  -0.00380   0.00202   0.01323   0.01879
 Alpha virt. eigenvalues --    0.02767   0.03624   0.04004   0.04887   0.05543
 Alpha virt. eigenvalues --    0.06391   0.07091   0.07591   0.08422   0.09106
 Alpha virt. eigenvalues --    0.09719   0.10415   0.10783   0.11180   0.11584
 Alpha virt. eigenvalues --    0.11875   0.12279   0.12431   0.12650   0.13561
 Alpha virt. eigenvalues --    0.13800   0.14358   0.14656   0.14775   0.14984
 Alpha virt. eigenvalues --    0.15559   0.15967   0.16365   0.16510   0.16744
 Alpha virt. eigenvalues --    0.16969   0.17367   0.17824   0.17913   0.18182
 Alpha virt. eigenvalues --    0.18739   0.18921   0.19220   0.19600   0.20000
 Alpha virt. eigenvalues --    0.20466   0.20699   0.20949   0.21287   0.21984
 Alpha virt. eigenvalues --    0.22454   0.22731   0.23346   0.24052   0.24997
 Alpha virt. eigenvalues --    0.25081   0.25199   0.25475   0.25706   0.26101
 Alpha virt. eigenvalues --    0.26948   0.30250   0.30973   0.31716   0.31982
 Alpha virt. eigenvalues --    0.32392   0.33329   0.33927   0.34425   0.35321
 Alpha virt. eigenvalues --    0.35760   0.35877   0.36862   0.36975   0.37771
 Alpha virt. eigenvalues --    0.39066   0.40069   0.40492   0.41400   0.41930
 Alpha virt. eigenvalues --    0.42137   0.43581   0.44635   0.45220   0.45673
 Alpha virt. eigenvalues --    0.46292   0.46322   0.47596   0.48244   0.48667
 Alpha virt. eigenvalues --    0.49160   0.50077   0.51075   0.51309   0.51727
 Alpha virt. eigenvalues --    0.52393   0.52958   0.53568   0.54015   0.54138
 Alpha virt. eigenvalues --    0.54933   0.55224   0.55758   0.56286   0.56339
 Alpha virt. eigenvalues --    0.56664   0.56836   0.57900   0.58540   0.58893
 Alpha virt. eigenvalues --    0.59908   0.60510   0.60926   0.61558   0.61788
 Alpha virt. eigenvalues --    0.62121   0.62839   0.63184   0.63538   0.63664
 Alpha virt. eigenvalues --    0.64103   0.64664   0.65427   0.65581   0.65823
 Alpha virt. eigenvalues --    0.66200   0.66922   0.67376   0.67633   0.68092
 Alpha virt. eigenvalues --    0.68303   0.68708   0.69025   0.69663   0.70831
 Alpha virt. eigenvalues --    0.71152   0.71913   0.72345   0.72842   0.73488
 Alpha virt. eigenvalues --    0.74028   0.74197   0.74774   0.75963   0.76223
 Alpha virt. eigenvalues --    0.76451   0.77188   0.77582   0.78329   0.78593
 Alpha virt. eigenvalues --    0.79635   0.79777   0.80694   0.80836   0.81613
 Alpha virt. eigenvalues --    0.81989   0.82371   0.83170   0.83575   0.83618
 Alpha virt. eigenvalues --    0.84193   0.84644   0.84818   0.85078   0.85396
 Alpha virt. eigenvalues --    0.85653   0.86263   0.86481   0.86781   0.86917
 Alpha virt. eigenvalues --    0.87548   0.88182   0.88375   0.88655   0.88689
 Alpha virt. eigenvalues --    0.89521   0.89774   0.89990   0.90271   0.90835
 Alpha virt. eigenvalues --    0.91291   0.91401   0.91612   0.92056   0.92670
 Alpha virt. eigenvalues --    0.92704   0.93355   0.93682   0.93948   0.94068
 Alpha virt. eigenvalues --    0.94705   0.95232   0.95917   0.96454   0.97028
 Alpha virt. eigenvalues --    0.97282   0.97532   0.97923   0.98532   0.99440
 Alpha virt. eigenvalues --    0.99740   1.00097   1.00761   1.01206   1.01313
 Alpha virt. eigenvalues --    1.02294   1.02719   1.03539   1.03688   1.04744
 Alpha virt. eigenvalues --    1.05700   1.06557   1.07124   1.07574   1.08150
 Alpha virt. eigenvalues --    1.08563   1.09455   1.10299   1.10620   1.11060
 Alpha virt. eigenvalues --    1.11494   1.12424   1.12705   1.14014   1.14496
 Alpha virt. eigenvalues --    1.18457   1.19053   1.19154   1.20089   1.20289
 Alpha virt. eigenvalues --    1.22281   1.23129   1.24262   1.24618   1.26617
 Alpha virt. eigenvalues --    1.26932   1.28011   1.28514   1.29200   1.29560
 Alpha virt. eigenvalues --    1.30233   1.30894   1.32894   1.34492   1.35848
 Alpha virt. eigenvalues --    1.37773   1.39481   1.40078   1.41132   1.42072
 Alpha virt. eigenvalues --    1.42357   1.42896   1.43847   1.45575   1.45622
 Alpha virt. eigenvalues --    1.46106   1.48303   1.49588   1.51032   1.52229
 Alpha virt. eigenvalues --    1.53212   1.53575   1.54919   1.55989   1.56339
 Alpha virt. eigenvalues --    1.58152   1.59070   1.59358   1.59967   1.61452
 Alpha virt. eigenvalues --    1.62922   1.63900   1.64443   1.66314   1.66763
 Alpha virt. eigenvalues --    1.67542   1.68249   1.68881   1.69108   1.70148
 Alpha virt. eigenvalues --    1.70682   1.71078   1.73275   1.73422   1.75430
 Alpha virt. eigenvalues --    1.75853   1.76982   1.77412   1.78161   1.78510
 Alpha virt. eigenvalues --    1.79450   1.79723   1.80123   1.80499   1.81425
 Alpha virt. eigenvalues --    1.82474   1.82907   1.83177   1.83226   1.83862
 Alpha virt. eigenvalues --    1.84957   1.85566   1.86229   1.86629   1.86919
 Alpha virt. eigenvalues --    1.87714   1.88697   1.89523   1.90100   1.90432
 Alpha virt. eigenvalues --    1.91417   1.91719   1.92345   1.92629   1.93077
 Alpha virt. eigenvalues --    1.93490   1.93717   1.93792   1.94042   1.94484
 Alpha virt. eigenvalues --    1.94605   1.95492   1.95820   1.96436   1.96890
 Alpha virt. eigenvalues --    1.97324   1.98406   1.99053   1.99246   1.99761
 Alpha virt. eigenvalues --    2.00092   2.00119   2.00627   2.01706   2.02537
 Alpha virt. eigenvalues --    2.02897   2.03467   2.03843   2.04287   2.04759
 Alpha virt. eigenvalues --    2.06491   2.06721   2.07309   2.07649   2.08454
 Alpha virt. eigenvalues --    2.09071   2.09813   2.10656   2.11481   2.12329
 Alpha virt. eigenvalues --    2.12446   2.14250   2.14851   2.15359   2.15585
 Alpha virt. eigenvalues --    2.16535   2.17102   2.18257   2.19477   2.20875
 Alpha virt. eigenvalues --    2.22349   2.23066   2.23255   2.24516   2.25668
 Alpha virt. eigenvalues --    2.26650   2.27713   2.28183   2.28535   2.29337
 Alpha virt. eigenvalues --    2.31818   2.32286   2.32924   2.33074   2.35509
 Alpha virt. eigenvalues --    2.36418   2.37746   2.38314   2.39023   2.39322
 Alpha virt. eigenvalues --    2.40493   2.41954   2.42641   2.44083   2.44828
 Alpha virt. eigenvalues --    2.47258   2.49767   2.50818   2.51249   2.51726
 Alpha virt. eigenvalues --    2.54410   2.54659   2.55458   2.56548   2.57366
 Alpha virt. eigenvalues --    2.58000   2.58368   2.59078   2.60014   2.61338
 Alpha virt. eigenvalues --    2.62026   2.63486   2.63886   2.64900   2.65689
 Alpha virt. eigenvalues --    2.66553   2.67346   2.68250   2.70803   2.72088
 Alpha virt. eigenvalues --    2.73018   2.77149   2.81324   2.82902   2.85139
 Alpha virt. eigenvalues --    2.88982   2.89206   2.92310   2.93116   2.94367
 Alpha virt. eigenvalues --    2.97832   2.98549   3.00262   3.01182   3.03713
 Alpha virt. eigenvalues --    3.09808   3.10733   3.12845   3.13940   3.15027
 Alpha virt. eigenvalues --    7.98081  15.53816  15.61564  15.63243  43.09538
          Condensed to atoms (all electrons):
 Mulliken charges:
               1
     1  Au  -0.151261
     2  N   -0.702839
     3  C   -0.106342
     4  C    0.590378
     5  O   -0.520540
     6  C   -0.006218
     7  O   -0.660333
     8  N   -0.585326
     9  C   -0.241463
    10  C    0.559181
    11  O   -0.486211
    12  N   -0.579370
    13  C   -0.057957
    14  C    0.557606
    15  O   -0.467508
    16  C   -0.434786
    17  S    0.006216
    18  N   -0.569376
    19  C   -0.069925
    20  C   -0.381186
    21  C    0.542832
    22  O   -0.449567
    23  N   -0.549725
    24  C   -0.265528
    25  C    0.545119
    26  O   -0.414445
    27  O   -0.622942
    28  H    0.140075
    29  H    0.161192
    30  H    0.425411
    31  H    0.140581
    32  H    0.320687
    33  H    0.301550
    34  H    0.198464
    35  H    0.174917
    36  H    0.359338
    37  H    0.195304
    38  H    0.230937
    39  H    0.178838
    40  H    0.367652
    41  H    0.198905
    42  H    0.256736
    43  H    0.196802
    44  H    0.359102
    45  H    0.188036
    46  H    0.216329
    47  H    0.345291
    48  H    0.455998
    49  Se  -0.070594
    50  Cl  -0.289130
    51  C   -0.278901
    52  C   -0.432470
    53  C   -0.434588
    54  C   -0.280048
    55  C   -0.264823
    56  H    0.189565
    57  H    0.236584
    58  H    0.209151
    59  H    0.162554
    60  H    0.190760
    61  H    0.222864
    62  H    0.181411
    63  H    0.168970
    64  H    0.136731
    65  H    0.167855
    66  S    0.293477
 Sum of Mulliken charges =   0.00000
 Mulliken charges with hydrogens summed into heavy atoms:
               1
     1  Au  -0.151261
     2  N   -0.080603
     3  C    0.034239
     4  C    0.590378
     5  O   -0.520540
     6  C    0.295049
     7  O   -0.234922
     8  N   -0.225988
     9  C    0.131918
    10  C    0.559181
    11  O   -0.486211
    12  N   -0.211718
    13  C    0.120881
    14  C    0.557606
    15  O   -0.467508
    16  C   -0.008546
    17  S    0.006216
    18  N   -0.210274
    19  C    0.126877
    20  C    0.074455
    21  C    0.542832
    22  O   -0.449567
    23  N   -0.204434
    24  C    0.138837
    25  C    0.545119
    26  O   -0.414445
    27  O   -0.166944
    49  Se  -0.070594
    50  Cl  -0.289130
    51  C    0.092804
    52  C   -0.006320
    53  C   -0.020964
    54  C    0.070333
    55  C    0.039763
    66  S    0.293477
 Electronic spatial extent (au):  <R**2>=          22625.6225
 Charge=              0.0000 electrons
 Dipole moment (field-independent basis, Debye):
    X=             -0.4163    Y=              5.7133    Z=             -6.1532  Tot=              8.4070
 Quadrupole moment (field-independent basis, Debye-Ang):
   XX=           -272.1584   YY=           -246.8350   ZZ=           -265.4386
   XY=             19.8177   XZ=             21.4390   YZ=              3.9696
 Traceless Quadrupole moment (field-independent basis, Debye-Ang):
   XX=            -10.6811   YY=             14.6423   ZZ=             -3.9613
   XY=             19.8177   XZ=             21.4390   YZ=              3.9696
 Octapole moment (field-independent basis, Debye-Ang**2):
  XXX=            293.7133  YYY=            -77.6851  ZZZ=            -92.2581  XYY=            172.9250
  XXY=             44.0202  XXZ=           -100.8482  XZZ=             98.3194  YZZ=             39.1768
  YYZ=             21.7464  XYZ=             73.6813
 Hexadecapole moment (field-independent basis, Debye-Ang**3):
 XXXX=         -17238.9410 YYYY=          -7759.4555 ZZZZ=          -3872.1852 XXXY=            132.0047
 XXXZ=            399.8490 YYYX=            365.4749 YYYZ=              6.5506 ZZZX=             -7.3252
 ZZZY=            116.4588 XXYY=          -4230.8682 XXZZ=          -3501.9717 YYZZ=          -2032.1332
 XXYZ=            -66.8329 YYXZ=            -18.9961 ZZXY=            -44.3435
 N-N= 6.106972512290D+03 E-N=-2.474323025137D+04  KE= 5.199739521135D+03
   1 Symmetry operations used in ECPInt.
 ECPInt:  NShTT=   24976 NPrTT=  152314 LenC2=   19666 LenP2D=   62515.
 LDataN:  DoStor=T MaxTD1= 8 Len=  415
 Calling FoFJK, ICntrl=      2127 FMM=T ISym2X=0 I1Cent= 0 IOpClX= 0 NMat=1 NMatS=1 NMatT=0.
 Defaulting to unpruned grid for atomic number  79.
 Defaulting to unpruned grid for atomic number  79.
 Defaulting to unpruned grid for atomic number  79.
 Defaulting to unpruned grid for atomic number  79.
 Defaulting to unpruned grid for atomic number  79.
 Defaulting to unpruned grid for atomic number  79.
 Defaulting to unpruned grid for atomic number  79.
 Defaulting to unpruned grid for atomic number  79.
 Defaulting to unpruned grid for atomic number  79.
 Defaulting to unpruned grid for atomic number  79.
 Defaulting to unpruned grid for atomic number  79.
 Defaulting to unpruned grid for atomic number  79.
 Defaulting to unpruned grid for atomic number  79.
 Defaulting to unpruned grid for atomic number  79.
 Defaulting to unpruned grid for atomic number  79.
 ***** Axes restored to original set *****
 -------------------------------------------------------------------
 Center     Atomic                   Forces (Hartrees/Bohr)
 Number     Number              X              Y              Z
 -------------------------------------------------------------------
      1       79           0.015330855   -0.000725946    0.016056103
      2        7           0.001034568    0.000140907   -0.001074599
      3        6           0.002079455   -0.002967999   -0.000513692
      4        6           0.001122257   -0.006369820   -0.000876440
      5        8          -0.003362022    0.004594285    0.003687344
      6        6          -0.002500105    0.002953085   -0.000255328
      7        8          -0.001149420    0.001350204    0.001863946
      8        7           0.003160025   -0.007881109   -0.004731189
      9        6          -0.005987763   -0.007589580    0.004766817
     10        6           0.005926705    0.000021531    0.000414452
     11        8          -0.001674510    0.001687147   -0.000549090
     12        7          -0.011028410    0.001815172   -0.002684202
     13        6           0.003835913   -0.002902722    0.006704660
     14        6          -0.003763853    0.003140494   -0.004529672
     15        8           0.000196383   -0.000547272    0.001674250
     16        6          -0.008929984    0.002800912    0.010357991
     17       16           0.006180525   -0.003616848   -0.005664914
     18        7          -0.003502850    0.003987912   -0.002950758
     19        6          -0.001293702   -0.000486646   -0.002892168
     20        6           0.004195594   -0.001418155   -0.003044838
     21        6           0.003817852   -0.000454437   -0.006287011
     22        8           0.000795726   -0.000387318    0.004337594
     23        7           0.000231598    0.000373145   -0.005546957
     24        6          -0.003265520   -0.002746667    0.000546100
     25        6           0.000680125    0.002437190    0.000240770
     26        8           0.000723793    0.000263998   -0.000660127
     27        8           0.000506174    0.000058318   -0.000091449
     28        1          -0.000181765    0.000430177    0.000467228
     29        1           0.001831387   -0.002049911   -0.001737577
     30        1           0.001023182   -0.001214473   -0.001932128
     31        1          -0.002145190    0.001931000    0.002427562
     32        1           0.000412549    0.000124856    0.000048168
     33        1          -0.000589625   -0.000225466    0.000163433
     34        1           0.002008003    0.003987949    0.001467590
     35        1           0.000542379    0.003276729   -0.003454444
     36        1           0.000142741    0.007254460    0.000102414
     37        1          -0.003238166   -0.006337308   -0.007591797
     38        1           0.002400183    0.012713696   -0.001565475
     39        1          -0.005932007    0.001797317   -0.005519064
     40        1           0.003991492   -0.000922314    0.000004584
     41        1          -0.000874057    0.002080892    0.003870177
     42        1           0.000847458    0.000865259    0.001671652
     43        1          -0.000035897   -0.001008758    0.000617373
     44        1           0.001029158   -0.004596625    0.001775153
     45        1           0.000102016   -0.000474171    0.000088032
     46        1           0.000934348    0.000570015    0.001277405
     47        1          -0.002722304    0.000355577    0.005101167
     48        1           0.000160006    0.000140085   -0.000087261
     49       34          -0.006969839   -0.009488055   -0.011071291
     50       17           0.002320634    0.000563671    0.007915941
     51        6          -0.005031866    0.004883204   -0.003359226
     52        6           0.002124335   -0.004485020   -0.001159001
     53        6          -0.004617603    0.004096445    0.000783936
     54        6           0.001088041   -0.003501231   -0.001533993
     55        6           0.004998231   -0.004284286    0.002542335
     56        1          -0.000903584    0.002695031    0.000243431
     57        1           0.001038267    0.000423228    0.000441822
     58        1           0.001068983   -0.003527466    0.000302229
     59        1           0.000461172   -0.000798449    0.001387419
     60        1           0.001453291   -0.000324115   -0.000505864
     61        1          -0.000569330    0.001476039   -0.001759062
     62        1          -0.000745980   -0.000579865    0.000013182
     63        1          -0.000588951    0.003957754   -0.000377770
     64        1          -0.001148490    0.003887033   -0.000652415
     65        1          -0.001349577    0.000684673    0.000095383
     66       16           0.004306971   -0.001907356    0.001201160
 -------------------------------------------------------------------
 Cartesian Forces:  Max     0.016056103 RMS     0.003760569

 GradGradGradGradGradGradGradGradGradGradGradGradGradGradGradGradGradGrad
 Berny optimization.
 FormGI is forming the generalized inverse of G from B-inverse, IUseBI=4.
 Internal  Forces:  Max     0.019203400 RMS     0.003240681
 Search for a local minimum.
[...]
 .00000116,-0.00000548,-0.00000641,0.00000071,-0.00000341,-0.00000377,-
 0.00000190,0.00000315,0.00000192,0.00000051,-0.00000419,-0.00000084,-0
 .00000559,-0.00001065,-0.00000622,-0.00001003,0.00000344,0.00000039,0.
 00000029,-0.00000650,-0.00000348,-0.00001833,0.00000533,0.00000401,0.0
 0000157,-0.00000594,-0.00000727,0.00000873,0.00000484,-0.00000580,0.00
 001034,-0.00000083,0.00005020,-0.00001894,-0.00000011,-0.00000164,0.00
 001662,-0.00000914,-0.00001474,-0.00004396,0.00002016,-0.00001273,0.00
 000474,0.00000284,-0.00000195,0.00000208,-0.00002517,0.00000875,0.0000
 2922,-0.00003301,-0.00003454,-0.00000859,-0.00001860,0.00000775,0.0000
 0589,-0.00005076,0.00002865,0.00008855,0.01127673,-0.02392622,0.009759
 55,0.00164057,0.00097375,-0.00034508,-0.00028871,0.00038966,0.00008265
 ,-0.00338918,0.00634963,-0.00321731,0.08976794,-0.21332918,0.07729597,
 -0.00105470,0.00052813,0.00039623,-0.00014723,0.00021096,-0.00029305,-
 0.00443254,-0.00285285,-0.00038648,0.00019376,0.00071843,-0.00045532,-
 0.00016572,0.00010390,0.00057100,-0.00017867,0.00010129,0.00012436,0.0
 0022399,0.00078288,0.00060163,-0.00048706,0.00087038,-0.00196147,-0.09
 604071,0.23493752,-0.00020005,-0.00002295,-0.00013284,-0.00001011,-0.0
 0000467,-0.00000038,0.00000531,-0.00000031,-0.00000109,0.00004295,0.00
 000788,-0.00003629,-0.00001752,0.00001542,0.00002945,0.00002006,0.0000
 0437,0.00000221,-0.00002772,-0.00000847,0.00000788,-0.00003842,-0.0000
 0834,0.00001305,0.00001161,-0.00000871,-0.00000427,0.00009723,0.000034
 23,0.00000572,-0.00005853,-0.00002498,-0.00000856,-0.00003915,-0.00001
 980,-0.00003880,-0.00001198,-0.00002665,0.00002759,0.00003339,-0.00003
 788,0.00001744,-0.00003790,0.00004727,0.00000288,0.00012369,-0.0000007
 2,-0.00004264,0.00001134,0.00016465,-0.00021963,0.00003276,0.00002872,
 -0.00001381,-0.00001658,-0.00004028,-0.00002987,-0.00000349,0.00000148
 ,0.00000854,-0.00005420,0.00004409,-0.00007048,0.00004270,-0.00005568,
 0.00008727,0.00003046,-0.00001807,0.00000498,-0.00000834,0.00000272,-0
 .00000906,-0.00001589,0.00000207,-0.00002702,0.00000783,-0.00000537,0.
 00001709,0.00001787,0.00001216,0.00002206,-0.00000325,-0.00000304,-0.0
 0000184,-0.00000392,0.00000077,0.00000105,0.00002512,0.00001210,-0.000
 01093,0.00000229,0.00000165,0.00000358,0.00000209,0.00000260,-0.000000
 47,0.00000190,0.00000222,0.00000060,-0.00000538,0.00000237,0.00000090,
 0.00000035,0.00000211,0.00000179,0.00000436,-0.00000679,-0.00000272,-0
 .00002132,0.00001676,-0.00001709,-0.00002772,0.00000074,-0.00003282,-0
 .00000232,0.00000924,-0.00000192,0.00004262,-0.00000122,0.00010120,0.0
 0000635,0.00000448,-0.00000188,0.00000161,0.00000709,-0.00000766,-0.00
 000026,0.00000761,0.00000641,-0.00000823,-0.00010839,0.00005808,0.0000
 0279,-0.00000080,0.00000234,0.00000273,-0.00000526,-0.00000259,-0.0000
 0953,0.00000585,-0.00000266,-0.00000568,-0.00001565,-0.00000808,0.0000
 1115,-0.00005968,0.00002347,0.00008406,0.00000979,0.00009544,0.0012927
 3,-0.00143352,0.00041854,-0.00055176,0.00038359,-0.00013903,-0.0006674
 2,0.00135414,0.00177499,-0.01550441,0.02630883,-0.01453421,-0.04020380
 ,0.07719363,-0.08713370,0.00028645,0.00011482,0.00003519,0.00009858,-0
 .00009602,0.00001359,-0.00050059,-0.00042610,0.00101206,0.00049215,-0.
 00016316,0.00042011,0.00083299,-0.00062125,-0.00029406,-0.00007066,-0.
 00035474,0.00030214,0.00034917,-0.00028634,0.00125590,-0.00187245,-0.0
 0180186,-0.00558610,0.04834471,-0.08428632,0.09465796,-0.00010795,0.00
 007910,-0.00006186,0.00000397,0.00000136,-0.00000159,-0.00000167,0.000
 00048,0.00000140,-0.00003164,-0.00000337,0.00003172,0.00001049,-0.0000
 1600,-0.00002830,-0.00000929,-0.00000179,0.00000291,0.00001454,0.00000
 569,-0.00000866,0.00002497,0.00000870,-0.00001538,-0.00000802,0.000004
 14,0.00000888,-0.00005772,-0.00002777,0.00000610,0.00002896,0.00002497
 ,-0.00000930,0.00005206,0.00000280,-0.00000639,-0.00000903,-0.00000764
 ,0.00001677,-0.00001813,0.00002517,0.00000653,0.00002199,-0.00002093,-
 0.00001264,-0.00002734,0.00002103,-0.00000147,0.00002522,0.00002832,0.
 00000523,0.00003269,0.00000677,-0.00004793,-0.00003237,0.00000281,-0.0
 0000816,-0.00004054,-0.00001874,0.00000655,0.00012874,-0.00009107,0.00
 014201,-0.00004246,0.00015301,-0.00016725,-0.00005478,0.00003234,-0.00
 001917,0.00001755,-0.00001024,0.00001201,0.00002281,-0.00001191,0.0000
 4234,-0.00001027,0.00001191,-0.00003148,-0.00003005,-0.00001017,-0.000
 03143,0.00000157,0.00000104,0.00000085,0.00000309,-0.00000093,-0.00000
 108,-0.00001321,-0.00000694,0.00000798,-0.00000108,-0.00000126,-0.0000
 0292,-0.00000064,-0.00000166,0.00000100,-0.00000080,0.00000016,0.00000
 014,0.00000240,-0.00000145,-0.00000077,-0.00000073,0.00000050,-0.00000
 189,-0.00000255,0.00000383,0.00000620,0.00001310,-0.00000608,0.0000018
 9,0.00000252,-0.00000568,-0.00000740,0.00000674,-0.00000093,-0.0000038
 4,-0.00001969,-0.00000129,-0.00000287,0.00001888,0.00000368,-0.0000092
 0,-0.00000713,-0.00000176,0.00001463,0.00000499,0.00000253,-0.00000963
 ,-0.00002897,0.00000277,0.00003287,-0.00000458,0.00000173,-0.00000066,
 -0.00000627,0.00000430,0.00000082,0.00002102,-0.00001059,0.00001037,0.
 00000983,0.00001654,0.00000953,0.00000574,-0.00002074,0.00000475,0.000
 09033,-0.00007670,0.00012018,-0.01716715,0.00458901,0.01146294,-0.0017
 4277,-0.00489547,-0.00118349,-0.00015134,-0.00064994,-0.00265191,0.010
 15717,-0.00271734,-0.00763653,-0.21687343,0.04563771,0.12044100,0.0004
 7363,0.00002189,-0.00012845,-0.00092465,0.00038668,0.00099157,0.000851
 98,0.00006264,0.00008100,0.00024545,0.00062288,-0.00035176,0.00002929,
 -0.00010971,-0.00007830,0.00051664,-0.00019971,-0.00059084,0.00071900,
 0.00019364,0.00057432,0.00059798,0.00003729,0.00056036,-0.01124248,0.0
 0314914,0.00748199,0.23446598,-0.00007328,0.00004264,-0.00004242,-0.00
 000411,-0.00001280,0.00000398,0.00000741,0.00000288,-0.00000053,0.0000
 1849,0.00003185,-0.00000104,-0.00001927,-0.00003476,-0.00000970,-0.000
 02300,0.00001028,-0.00001167,0.00002712,-0.00003393,0.00002580,-0.0000
 1691,-0.00001617,-0.00000135,0.00000211,-0.00000085,-0.00000001,0.0000
 6588,0.00007199,-0.00001992,-0.00002063,-0.00006402,0.00003501,-0.0000
 5088,-0.00003190,-0.00001024,0.00000043,0.00001737,0.00000784,0.000079
 36,-0.00000857,0.00009333,-0.00004430,0.00001504,-0.00003942,0.0000174
 1,0.00001184,0.00000115,0.00000772,0.00002496,-0.00001719,-0.00000628,
 0.00001488,-0.00013261,-0.00004528,-0.00000340,-0.00000719,-0.00003528
 ,-0.00001866,0.00000448,0.00045417,-0.00025493,0.00020773,-0.00022259,
 0.00048273,-0.00029512,-0.00020817,0.00012381,0.00004407,0.00005169,-0
 .00005754,0.00004253,0.00008639,0.00003482,0.00003145,-0.00005386,-0.0
 0001201,-0.00001200,-0.00008476,-0.00004057,-0.00004191,0.00000144,-0.
 00000340,0.00000122,0.00000068,0.00000160,0.00000021,-0.00000218,0.000
 02488,-0.00002731,0.00000012,-0.00000093,0.00000091,0.00000296,0.00000
 565,-0.00000116,0.00000298,0.00000016,0.00000150,-0.00000176,-0.000001
 34,-0.00000161,0.00000316,-0.00000014,0.00000432,0.00000699,0.00000838
 ,0.00001048,0.00000364,-0.00000221,-0.00000457,-0.00000943,0.00000309,
 -0.00000737,-0.00000083,-0.00000336,-0.00000270,0.00000794,0.00000623,
 0.00001101,0.00000954,0.00000491,-0.00000784,-0.00001700,-0.00001657,0
 .00001826,0.00000596,0.00000640,-0.00001829,-0.00002643,-0.00001900,0.
 00006393,-0.00001898,0.00001129,-0.00000446,-0.00000720,0.00000340,-0.
 00000237,0.00003522,-0.00002243,-0.00002119,0.00003262,0.00004110,0.00
 001091,0.00000226,-0.00001866,-0.00000294,0.00009474,-0.00005017,0.000
 08566,-0.02287705,0.00526986,0.01603881,-0.00309702,-0.00479220,-0.000
 87892,-0.00092327,0.00016534,-0.00167986,0.00524493,-0.00196134,-0.002
 92068,0.04655541,-0.06186216,-0.03181214,-0.00020043,0.00012171,-0.000
 02201,-0.00131136,0.00048246,0.00084617,0.00058103,0.00096568,0.000379
 49,0.00070794,0.00115083,-0.00011430,-0.00032455,0.00026126,0.00035652
 ,0.00041854,0.00017757,-0.00048189,0.00038368,-0.00011704,0.00002209,-
 0.00040705,0.00039247,0.00025692,0.02139304,-0.00569935,-0.01583585,-0
 .04616279,0.06534033,0.00006664,-0.00016523,0.00006002,0.00001471,0.00
 000452,0.00001176,-0.00000112,0.00000015,-0.00000856,0.00000697,0.0000
 0363,-0.00003363,0.00000945,0.00001502,0.00003447,-0.00006045,-0.00000
 005,-0.00001485,0.00007739,0.00000298,0.00003561,0.00000099,-0.0000134
 1,0.00003334,0.00000652,-0.00000632,-0.00002725,0.00006816,0.00007847,
 -0.00006083,-0.00002203,-0.00005853,0.00007636,-0.00008897,0.00000061,
 0.00007607,0.00002189,0.00003930,-0.00006543,-0.00004307,-0.00002235,-
 0.00009752,0.00000894,0.00000049,0.00004322,0.00009031,0.00003509,0.00
 004378,-0.00005587,-0.00004954,0.00006791,-0.00005765,-0.00004338,0.00
 016328,0.00005525,0.00004418,0.00001782,0.00006128,0.00001522,-0.00001
 473,-0.00028062,0.00023458,-0.00023687,0.00008345,-0.00041572,0.000173
 78,0.00010822,-0.00011504,-0.00000424,-0.00003346,0.00004006,-0.000023
 09,-0.00005742,0.00005734,-0.00008867,0.00004055,-0.00006886,0.0000359
 0,0.00006902,0.00000506,0.00005702,0.00001122,0.00000626,0.00000648,0.
 00000264,-0.00000157,0.00000008,-0.00002036,-0.00000154,-0.00004294,0.
 00000021,0.00000170,0.00000271,-0.00000511,-0.00000157,-0.00000127,0.0
 0000007,-0.00000671,-0.00000140,-0.00000047,0.00000277,0.00000038,0.00
 000091,-0.00000500,0.00000146,-0.00000920,0.00000472,-0.00001814,-0.00
 001468,0.00000256,-0.00000173,-0.00003026,0.00001631,-0.00001503,-0.00
 001482,-0.00000377,0.00001378,0.00005308,-0.00002044,-0.00005530,-0.00
 002278,-0.00000857,0.00001413,0.00000475,0.00001874,-0.00001317,-0.000
 00475,-0.00000481,0.00001214,0.00008481,0.00001717,-0.00012174,0.00001
 006,-0.00000961,0.00000223,0.00000621,-0.00000114,-0.00000118,-0.00001
 137,0.00004695,0.00003301,-0.00002881,-0.00001552,-0.00001007,-0.00003
 764,0.00004563,-0.00004369,0.00001877,0.00001467,0.00004673,-0.0014292
 4,0.00115315,0.00104157,-0.00101158,-0.00028668,0.00080506,-0.00430231
 ,-0.00088927,-0.00539775,0.02517530,-0.00736467,-0.01949884,0.11947376
 ,-0.03078944,-0.13471819,0.00023827,-0.00008588,-0.00008496,-0.0001848
 6,-0.00018152,0.00021554,0.00022265,0.00011941,-0.00002464,-0.00021739
 ,0.00038153,0.00056314,0.00000085,-0.00003465,0.00013665,0.00160167,-0
 .00032797,-0.00111363,0.00011153,-0.00019171,0.00132061,0.00028260,0.0
 0068198,0.00097660,-0.01099701,0.00218829,0.00821936,-0.12850930,0.036
 16993,0.14716382,-0.02407203,0.01041282,0.00157002,0.00001318,0.000008
 15,-0.00000746,-0.00001461,0.00000070,0.00000786,-0.00009032,-0.000025
 25,0.00008614,0.00003639,-0.00003399,-0.00007361,0.00000702,-0.0000078
 7,0.00000903,-0.00000832,0.00002235,-0.00003880,0.00007727,0.00003279,
 -0.00004862,-0.00002285,0.00002004,0.00003638,-0.00032180,-0.00021890,
 0.00009075,0.00011547,0.00018480,-0.00011243,0.00030231,0.00000892,-0.
 00006571,0.00002592,-0.00018548,0.00024531,0.00009316,0.00017938,0.000
 21574,0.00002692,-0.00015566,-0.00008282,-0.00023107,-0.00053681,-0.00
 031533,-0.00508754,0.00163762,-0.00439007,-0.00016049,-0.00020244,-0.0
 0013638,0.00013934,-0.00006393,0.00015998,0.00056196,-0.00089792,0.000
 24333,0.00001760,-0.00005680,0.00004239,-0.00010093,0.00000817,-0.0000
 2056,-0.00002842,-0.00000251,0.00001859,0.00001176,-0.00000913,0.00001
 385,0.00004590,-0.00000389,0.00005489,-0.00001791,0.00001088,-0.000027
 08,-0.00004376,-0.00002805,-0.00004632,-0.00000190,0.00000205,-0.00000
 112,0.00000251,-0.00000051,-0.00000271,-0.00001078,-0.00002971,0.00005
 966,-0.00000342,-0.00000429,-0.00000845,-0.00000238,-0.00000499,0.0000
 0128,-0.00000510,-0.00000009,0.,0.00001092,-0.00000348,-0.00000206,-0.
 00001016,0.00001166,-0.00000806,-0.00000279,0.00001087,0.00001198,0.00
 013023,-0.00008138,-0.00008898,0.00040194,0.00008881,0.00022253,0.0001
 0100,0.00001386,-0.00006767,-0.00017229,-0.00000999,0.00006835,0.00003
 876,-0.00016539,-0.00012840,-0.00020259,-0.00002035,0.00019282,-0.0000
 0528,-0.00001297,0.00000204,-0.00010181,0.00028825,0.00011810,-0.00000
 187,0.00000083,-0.00000454,0.00000021,0.00001184,0.00001185,0.00000407
 ,0.00000958,0.00000512,0.00001782,0.00003418,0.00001876,0.00391015,0.0
 0181169,-0.00325476,-0.00049912,-0.00247056,-0.00074882,0.00789861,0.0
 0346194,0.01783609,-0.04076850,-0.00610280,-0.01301416,-0.07571680,-0.
 02360801,0.01601402,-0.02352793,-0.02457178,0.00392334,0.00110516,-0.0
 0055103,-0.00188820,-0.00164698,-0.00448782,-0.01328235,-0.00301139,-0
 .00148124,-0.01777363,0.00090762,-0.00036693,0.00011464,-0.00306231,0.
 00040945,0.00265782,0.00400213,0.00036542,-0.00109034,-0.00830866,-0.0
 1028982,0.00067595,-0.00338066,0.00275207,0.00468211,0.00121603,-0.000
 11042,-0.00088990,-0.00009274,-0.00017730,0.00015514,0.00004740,-0.000
 01708,-0.00053651,0.16946676,0.01736648,-0.03287143,-0.00172811,0.0000
 0464,0.00002112,-0.00000013,-0.00000427,-0.00000615,-0.00000731,0.0000
 0227,-0.00004198,-0.00002235,0.00001642,0.00007046,0.00004186,0.000029
 65,-0.00001555,0.00001399,-0.00003673,0.00003385,-0.00001145,-0.000008
 21,0.00002649,0.00001021,-0.00000606,-0.00002653,-0.00000507,0.0000510
 5,-0.00002872,-0.00000403,-0.00003976,0.00006848,-0.00002471,-0.000083
 89,0.00015279,-0.00002198,-0.00021592,-0.00001431,-0.00019141,-0.00028
 441,-0.00032916,-0.00027630,0.00011826,0.00027635,0.00006934,-0.000273
 28,-0.00102663,0.00016332,0.00257012,0.00097291,0.00204724,0.00035441,
 0.00035233,0.00005830,-0.00029436,-0.00027037,-0.00043570,-0.00110333,
 0.00129844,-0.00035695,0.00007815,-0.00003567,0.00058111,0.00007162,0.
 00030433,-0.00034898,0.00009591,0.00002478,-0.00023584,-0.00004604,0.0
 0004965,-0.00002710,-0.00016100,-0.00012725,0.00000276,0.00007314,0.00
 008523,-0.00002775,0.00012177,0.00008674,0.00003703,-0.00000087,0.0000
 0619,-0.00000234,-0.00000436,-0.00000076,0.00000070,0.00002096,-0.0000
 2180,0.00000818,0.00000212,0.00000201,0.00000391,-0.00000539,-0.000007
 81,0.00000149,-0.00000351,-0.00000295,-0.00000300,-0.00000370,0.000007
 39,0.00000141,-0.00000455,-0.00000980,-0.00001173,-0.00002430,-0.00003
 214,-0.00000569,-0.00021305,0.00032820,-0.00004256,-0.00000884,-0.0000
 7281,-0.00008247,-0.00011590,0.00001112,0.00007493,0.00018725,0.000012
 94,-0.00002250,0.00010733,0.00023436,0.00018255,0.00055502,-0.00013161
 ,-0.00043768,-0.00003671,0.00003766,0.00002323,0.00014782,-0.00038677,
 0.00001121,0.00001622,-0.00001029,0.00000987,-0.00002241,-0.00000944,-
 0.00000560,0.00000747,-0.00004744,0.00000506,-0.00005577,-0.00008038,-
 0.00002377,0.00067074,-0.00117431,0.00571476,-0.00431318,-0.00652244,-
 0.00199332,-0.00009459,0.00007098,-0.00809950,-0.00138486,-0.05029654,
 -0.01048963,-0.03236674,-0.06781560,0.01963741,-0.00792867,-0.00332052
 ,0.00357536,-0.00073906,-0.00028205,-0.00047771,0.00194153,0.00569515,
 0.01956998,-0.00333311,-0.00160192,-0.02296158,-0.00047575,0.00005751,
 -0.00019689,0.00143849,0.00064392,-0.00070515,-0.02422801,-0.02077704,
 0.00040076,-0.00467214,-0.00670697,-0.00063040,0.00031183,0.00200927,0
 .00056050,0.00109115,0.00116461,-0.00036607,-0.00000056,-0.00005704,-0
 .00001655,-0.00005598,-0.00016925,-0.00025799,0.05519745,0.18022621,-0
 .00640530,0.00837661,-0.01583355,-0.00000120,-0.00001196,0.00000380,0.
 00000422,0.00000318,0.00000116,0.00001251,0.00002695,-0.00000504,-0.00
 001306,-0.00003335,-0.00000710,-0.00003034,0.00000919,-0.00001366,0.00
 003783,-0.00002173,0.00002066,-0.00000331,-0.00002381,0.00000602,0.000
 00601,0.00001933,-0.00001287,0.00001801,0.00002692,-0.00000962,0.00000
 142,-0.00005765,0.00004784,0.00003759,-0.00007795,0.00005843,0.0001070
 5,0.00017389,-0.00004729,0.00022204,0.00004761,0.00020871,-0.00009840,
 -0.00006549,-0.00006051,-0.00029039,0.00006520,0.00006729,-0.00446995,
 0.00072361,-0.00345251,-0.00031250,-0.00025286,-0.00004632,0.00025682,
 0.00022364,0.00020557,-0.00000333,0.00154688,0.00003475,-0.00009862,0.
 00013562,-0.00048678,0.00003906,-0.00028381,0.00028388,-0.00002456,-0.
 00005230,0.00015030,0.00001782,-0.00002439,0.00001161,0.00008453,0.000
 09719,-0.00003498,-0.00003633,-0.00007186,0.00003715,-0.00005365,-0.00
 004963,-0.00000140,0.00000328,-0.00000230,0.00000281,0.00000228,0.0000
 0058,0.00000012,-0.00001482,0.00001482,-0.00002234,-0.00000082,-0.0000
 0055,-0.00000030,0.00000233,0.00000508,-0.00000147,0.00000261,-0.00000
 005,0.00000148,0.00000198,-0.00000500,0.00000016,0.00000418,0.00000078
 ,0.00000923,0.00001372,0.00001862,-0.00000141,0.00008795,-0.00010392,-
 0.00000792,0.00005799,0.00009211,0.00011442,0.00000058,-0.00001924,-0.
 00002155,-0.00012771,-0.00004400,-0.00002704,-0.00048223,-0.00020499,0
 .00041857,-0.00009041,0.00006961,-0.00021622,0.00000159,-0.00003268,0.
 00001034,-0.00006516,0.00020405,-0.00009264,-0.00000593,0.00000467,-0.
 00000532,0.00001794,0.00000348,0.00000445,-0.00001500,0.00003969,-0.00
 000504,0.00002517,0.00004038,0.00000883,0.00009262,-0.00124699,0.00319
 175,0.00047239,-0.00018330,-0.00017120,-0.00425665,-0.00617479,-0.0354
 3490,0.01151767,0.00370482,-0.09603380,-0.00448916,0.00225364,-0.05351
 388,0.01214847,0.01480059,0.00191135,-0.00193564,-0.00082839,0.0009699
 4,-0.00569259,-0.00594623,-0.02182127,-0.00415931,-0.00221468,-0.00599
 012,-0.00082990,0.00016596,0.00217329,0.00664096,-0.00028860,-0.000947
 97,0.00833054,0.00761850,-0.00026695,-0.01654432,-0.01848195,0.0055115
 2,0.00274825,-0.00126695,-0.00207714,-0.00057769,-0.00003233,0.0002813
 6,-0.00001407,0.00012566,-0.00023836,-0.00046503,-0.00028596,0.0003334
 9,0.00858997,-0.00224918,0.22082820\\-0.00001147,-0.00004068,0.0000117
 5,0.00000258,-0.00000609,-0.00000072,-0.00000263,0.00001091,-0.0000110
 0,0.00001030,-0.00000643,0.00004961,0.00000076,-0.00000511,-0.00002639
 ,-0.00000448,-0.00000221,0.00000246,0.00000483,0.00000186,-0.00000206,
 -0.00001157,-0.00000192,-0.00002184,0.00001419,0.00001289,0.00002644,-
 0.00002293,0.00000264,-0.00003421,0.00000478,-0.00000182,0.00000367,0.
 00001039,-0.00002208,0.00002223,0.00000477,0.00001039,-0.00003365,-0.0
 0000037,-0.00000410,0.00000303,0.00000582,0.00000292,0.00000030,-0.000
 01003,-0.00000254,0.00000460,0.00001472,0.00000063,0.00000572,-0.00001
 595,-0.00001152,0.00000155,0.00001595,0.00002180,0.00002190,-0.0000118
 6,0.00000753,0.00001613,-0.00002008,-0.00000474,-0.00002060,0.00000532
 ,-0.00000423,0.00000398,-0.00000120,0.00000702,0.00000165,-0.00000158,
 0.00000671,0.00001322,0.00001313,-0.00001902,0.00001990,-0.00000805,0.
 00000607,-0.00001041,-0.00001884,-0.00002600,-0.00000881,0.00000237,-0
 .00000084,-0.00000369,0.00000093,-0.00000411,0.,0.00000328,-0.00000387
 ,0.00000213,0.00000394,-0.00000164,-0.00000238,-0.00000181,-0.00000280
 ,0.00000047,-0.00000148,-0.00000201,-0.00000210,-0.00000385,-0.0000027
 4,0.00000123,-0.00000376,-0.00000114,-0.00000349,0.00000115,-0.0000085
 1,-0.00000060,0.00000054,0.00000265,0.00000336,-0.00000405,-0.00000812
 ,-0.00000208,-0.00000067,0.00000057,0.00000451,0.00000934,0.00000735,0
 .00000192,-0.00000045,0.00000032,-0.00000581,0.00000378,-0.00000032,-0
 .00000581,-0.00000345,-0.00000136,-0.00000298,0.00000293,0.00000340,-0
 .00000063,0.00000040,-0.00000115,-0.00000193,0.00000040,-0.00000512,-0
 .00000226,0.00000453,-0.00000186,-0.00000287,0.00000251,0.00001897,-0.
 00000383,-0.00000257,0.00004440,-0.00000519,0.00000321,0.00000556,0.00
 000250,0.00000990,-0.00000146,-0.00001222,-0.00000979,0.00000694,0.000
 02027,0.00000345,-0.00000455,0.00000050,0.00000891,0.00000693,-0.00000
 134,-0.00000272,0.00000252,-0.00000155,0.00000210,-0.00000389,-0.00000
 285,-0.00000117,-0.00000108,-0.00000203,-0.00000037,0.00000099,0.00000
 143,0.00000130,0.00000536,0.00000042,0.00000718,0.00000256,0.00000189,
 -0.00000090,0.00000320,0.00000147,-0.00000196,0.00000192,-0.00000504,-
 0.00000500,0.00000297,0.00000362,0.00000192,0.00000054,0.00000085,0.00
 000026,0.00000015,-0.00000177,0.00000319,0.00000640,-0.00001255\\\@


 EVERY WORD THAT YOU WRITE IS A BLOW THAT SMITES THE DEVIL.
     -- ST. BERNARD OF CLAIRVAUX
 Job cpu time:       0 days  9 hours  9 minutes  7.3 seconds.
 File lengths (MBytes):  RWF=   2997 Int=      0 D2E=      0 Chk=     30 Scr=      1
 Normal termination of Gaussian 09 at Thu May 18 16:15:49 2023.
