 Entering Gaussian System, Link 0=g09
 Input=au-1to3-ts-2-af59-cterm-se-wat-ts.com
 Output=au-1to3-ts-2-af59-cterm-se-wat-ts.log
 Initial command:
 /home/scr/programs/g09/l1.exe "/home/scr/guest2/Gau-23675.inp" -scrdir="/home/scr/guest2/"
 Entering Link 1 = /home/scr/programs/g09/l1.exe PID=     23676.
  
 Copyright (c) 1988,1990,1992,1993,1995,1998,2003,2009,2013,
            Gaussian, Inc.  All Rights Reserved.
  
 This is part of the Gaussian(R) 09 program.  It is based on
 the Gaussian(R) 03 system (copyright 2003, Gaussian, Inc.),
 the Gaussian(R) 98 system (copyright 1998, Gaussian, Inc.),
 the Gaussian(R) 94 system (copyright 1995, Gaussian, Inc.),
 the Gaussian 92(TM) system (copyright 1992, Gaussian, Inc.),
 the Gaussian 90(TM) system (copyright 1990, Gaussian, Inc.),
 the Gaussian 88(TM) system (copyright 1988, Gaussian, Inc.),
 the Gaussian 86(TM) system (copyright 1986, Carnegie Mellon
 University), and the Gaussian 82(TM) system (copyright 1983,
 Carnegie Mellon University). Gaussian is a federally registered
 trademark of Gaussian, Inc.
  
 This software contains proprietary and confidential information,
 including trade secrets, belonging to Gaussian, Inc.
  
 This software is provided under written license and may be
 used, copied, transmitted, or stored only in accord with that
 written license.
  
 The following legend is applicable only to US Government
 contracts under FAR:
  
                    RESTRICTED RIGHTS LEGEND
  
 Use, reproduction and disclosure by the US Government is
 subject to restrictions as set forth in subparagraphs (a)
 and (c) of the Commercial Computer Software - Restricted
 Rights clause in FAR 52.227-19.
  
 Gaussian, Inc.
 340 Quinnipiac St., Bldg. 40, Wallingford CT 06492
  
  
 ---------------------------------------------------------------
 Warning -- This program may not be used in any manner that
 competes with the business of Gaussian, Inc. or will provide
 assistance to any competitor of Gaussian, Inc.  The licensee
 of this program is prohibited from giving any competitor of
 Gaussian, Inc. access to this program.  By using this program,
 the user acknowledges that Gaussian, Inc. is engaged in the
 business of creating and licensing software in the field of
 computational chemistry and represents and warrants to the
 licensee that it is not a competitor of Gaussian, Inc. and that
 it will not use this program in any manner prohibited above.
 ---------------------------------------------------------------
  

 Cite this work as:
 Gaussian 09, Revision D.01,
 M. J. Frisch, G. W. Trucks, H. B. Schlegel, G. E. Scuseria, 
 M. A. Robb, J. R. Cheeseman, G. Scalmani, V. Barone, B. Mennucci, 
 G. A. Petersson, H. Nakatsuji, M. Caricato, X. Li, H. P. Hratchian, 
 A. F. Izmaylov, J. Bloino, G. Zheng, J. L. Sonnenberg, M. Hada, 
 M. Ehara, K. Toyota, R. Fukuda, J. Hasegawa, M. Ishida, T. Nakajima, 
 Y. Honda, O. Kitao, H. Nakai, T. Vreven, J. A. Montgomery, Jr., 
 J. E. Peralta, F. Ogliaro, M. Bearpark, J. J. Heyd, E. Brothers, 
 K. N. Kudin, V. N. Staroverov, T. Keith, R. Kobayashi, J. Normand, 
 K. Raghavachari, A. Rendell, J. C. Burant, S. S. Iyengar, J. Tomasi, 
 M. Cossi, N. Rega, J. M. Millam, M. Klene, J. E. Knox, J. B. Cross, 
 V. Bakken, C. Adamo, J. Jaramillo, R. Gomperts, R. E. Stratmann, 
 O. Yazyev, A. J. Austin, R. Cammi, C. Pomelli, J. W. Ochterski, 
 R. L. Martin, K. Morokuma, V. G. Zakrzewski, G. A. Voth, 
 P. Salvador, J. J. Dannenberg, S. Dapprich, A. D. Daniels, 
 O. Farkas, J. B. Foresman, J. V. Ortiz, J. Cioslowski, 
 and D. J. Fox, Gaussian, Inc., Wallingford CT, 2013.
 
 ******************************************
 Gaussian 09:  EM64L-G09RevD.01 24-Apr-2013
                17-May-2023 
 ******************************************
 %mem=50000MB
 %nprocshared=15
 Will use up to   15 processors via shared memory.
 %chk=au-1to3-ts-2-af59-cterm-se-wat-ts.chk
 ----------------------------------------------------------------
 # opt=(ts,readfc,noeigentest) freq=noraman b3lyp/gen pseudo=read
 ----------------------------------------------------------------
 1/5=1,10=3,11=1,14=-1,18=20,26=3,38=1/1,3;
 2/9=110,12=2,17=6,18=5,40=1/2;
 3/5=7,11=2,16=1,17=8,25=1,30=1,71=1,74=-5/1,2,3;
 4//1;
 5/5=2,38=5/2;
 6/7=2,8=2,9=2,10=2,28=1/1;
 7//1,2,3,16;
 1/5=1,11=1,14=-1,18=20,26=3/3(2);
 2/9=110/2;
 99//99;
 2/9=110/2;
 3/5=7,6=1,11=2,16=1,17=8,25=1,30=1,71=1,74=-5,82=7/1,2,3;
 4/5=5,16=3,69=1/1;
 5/5=2,38=5/2;
 7//1,2,3,16;
 1/5=1,11=1,14=-1,18=20,26=3/3(-5);
 2/9=110/2;
 6/7=2,8=2,9=2,10=2,19=2,28=1/1;
 99/9=1/99;
 -------------------
 Title Card Required
 -------------------
 Symbolic Z-matrix:
 Charge =  0 Multiplicity = 1
 Au                   -3.18526  -0.3615   -0.15754 
 N                     7.65228   3.01726  -0.56136 
 C                     6.23585   2.65952  -0.6038 
 C                     5.95905   1.29022   0.03026 
 O                     6.69005   0.33715  -0.27816 
 C                     5.78897   2.6021   -2.08534 
 O                     4.4817    2.10197  -2.25643 
 N                     4.94168   1.11286   0.92374 
 C                     4.03228   2.10155   1.48381 
 C                     2.75996   2.31951   0.64314 
 O                     2.74483   3.16748  -0.24736 
 N                     1.65139   1.56217   0.89814 
 C                     1.38867   0.62831   1.98266 
 C                     1.57265  -0.86582   1.65883 
 O                     1.83103  -1.64442   2.56978 
 C                    -0.03529   0.84074   2.55306 
 S                    -1.43096   0.94922   1.33071 
 N                     1.35202  -1.2585    0.36991 
 C                     0.84896  -2.60817   0.10443 
 C                    -0.66676  -2.58844  -0.13211 
 C                     1.53977  -3.21072  -1.1418 
 O                     0.96225  -3.22865  -2.22035 
 N                     2.78483  -3.75259  -0.97505 
 C                     3.73834  -3.46471   0.08359 
 C                     4.84567  -2.55412  -0.45042 
 O                     5.13838  -2.49455  -1.62344 
 O                     5.45352  -1.86652   0.52895 
 H                     5.92521   3.60702  -2.51111 
 H                     6.4546    1.91498  -2.6177 
 H                     3.86183   2.68997  -1.78788 
 H                     5.66706   3.45162  -0.1083 
 H                     8.19132   2.20572  -0.86421 
 H                     7.94222   3.20885   0.39641 
 H                     4.52189   3.07415   1.54162 
 H                     3.80277   1.79602   2.50801 
 H                     4.81273   0.14715   1.21476 
 H                    -0.07665   1.82553   3.03496 
 H                    -0.24576   0.07391   3.30029 
 H                     2.07255   0.82279   2.81208 
 H                     0.85287   1.8085    0.3166 
 H                    -1.08112  -3.59956  -0.1849 
 H                    -0.91929  -2.1013   -1.07271 
 H                     1.08665  -3.19351   0.99481 
 H                     1.11554  -0.5436   -0.30806 
 H                     4.20634  -4.39606   0.43177 
 H                     3.25672  -3.01131   0.9497 
 H                     3.22013  -3.97892  -1.86564 
 H                     6.09803  -1.2129    0.11878 
 Se                   -1.68861  -1.71365   1.34562 
 Cl                   -4.15264  -2.21291  -1.63883 
 C                    -3.01257   3.56898  -0.7893 
 C                    -3.62625   2.732    -1.91361 
 C                    -5.64514   2.12641  -0.05663 
 C                    -4.84129   2.99328   0.91561 
 C                    -4.04448   4.10633   0.2133 
 H                    -4.31124   3.32767  -2.53072 
 H                    -2.86326   2.31118  -2.57438 
 H                    -2.26093   2.96956  -0.2605 
 H                    -2.47891   4.40971  -1.25507 
 H                    -6.38066   2.72449  -0.61034 
 H                    -6.18219   1.32031   0.45391 
 H                    -5.54862   3.43983   1.62664 
 H                    -4.16173   2.3565    1.4986 
 H                    -4.74073   4.78572  -0.30341 
 H                    -3.52557   4.70914   0.96993 
 S                    -4.61836   1.28132  -1.33726 
 

 GradGradGradGradGradGradGradGradGradGradGradGradGradGradGradGradGradGrad
 Berny optimization.
 Initialization pass.
 No redundant coordinates on chk file, so ReadFC converted to ReadCartesianFC.
 Cartesian force constants read from checkpoint file:
 "au-1to3-ts-2-af59-cterm-se-wat-ts.chk"
 FormGI is forming the generalized inverse of G from B-inverse, IUseBI=4.
                           ----------------------------
                           !    Initial Parameters    !
                           ! (Angstroms and Degrees)  !
 --------------------------                            --------------------------
 ! Name  Definition              Value          Derivative Info.                !
 --------------------------------------------------------------------------------
 ! R1    R(1,17)                 2.6477         D2E/DX2 =    0.0395             !
 ! R2    R(1,49)                 2.5155         D2E/DX2 =    0.0773             !
 ! R3    R(1,50)                 2.5608         D2E/DX2 =    0.0485             !
 ! R4    R(1,66)                 2.4788         D2E/DX2 =    0.0566             !
 ! R5    R(2,3)                  1.4615         D2E/DX2 =    0.3366             !
 ! R6    R(2,32)                 1.0202         D2E/DX2 =    0.4387             !
 ! R7    R(2,33)                 1.0189         D2E/DX2 =    0.4393             !
 ! R8    R(3,4)                  1.5342         D2E/DX2 =    0.25               !
 ! R9    R(3,6)                  1.5485         D2E/DX2 =    0.2561             !
 ! R10   R(3,31)                 1.0938         D2E/DX2 =    0.341              !
 ! R11   R(4,5)                  1.2401         D2E/DX2 =    0.734              !
 ! R12   R(4,8)                  1.3656         D2E/DX2 =    0.471              !
 ! R13   R(6,7)                  1.4101         D2E/DX2 =    0.3724             !
 ! R14   R(6,28)                 1.0999         D2E/DX2 =    0.3266             !
 ! R15   R(6,29)                 1.0948         D2E/DX2 =    0.3412             !
 ! R16   R(7,30)                 0.9744         D2E/DX2 =    0.4835             !
 ! R17   R(8,9)                  1.4554         D2E/DX2 =    0.3626             !
 ! R18   R(8,36)                 1.0168         D2E/DX2 =    0.4447             !
 ! R19   R(9,10)                 1.5405         D2E/DX2 =    0.2518             !
 ! R20   R(9,34)                 1.0904         D2E/DX2 =    0.3512             !
 ! R21   R(9,35)                 1.0932         D2E/DX2 =    0.3427             !
 ! R22   R(10,11)                1.2297         D2E/DX2 =    0.7799             !
 ! R23   R(10,12)                1.3666         D2E/DX2 =    0.4736             !
 ! R24   R(12,13)                1.4551         D2E/DX2 =    0.35               !
 ! R25   R(12,40)                1.0181         D2E/DX2 =    0.441              !
 ! R26   R(13,14)                1.5399         D2E/DX2 =    0.2759             !
 ! R27   R(13,16)                1.5486         D2E/DX2 =    0.2438             !
 ! R28   R(13,39)                1.0925         D2E/DX2 =    0.3445             !
 ! R29   R(14,15)                1.2259         D2E/DX2 =    0.7963             !
 ! R30   R(14,18)                1.3653         D2E/DX2 =    0.4362             !
 ! R31   R(16,17)                1.8584         D2E/DX2 =    0.1558             !
 ! R32   R(16,37)                1.0971         D2E/DX2 =    0.3344             !
 ! R33   R(16,38)                1.0912         D2E/DX2 =    0.3502             !
 ! R34   R(18,19)                1.4646         D2E/DX2 =    0.3552             !
 ! R35   R(18,44)                1.0132         D2E/DX2 =    0.4602             !
 ! R36   R(19,20)                1.5342         D2E/DX2 =    0.2597             !
 ! R37   R(19,21)                1.5471         D2E/DX2 =    0.2585             !
 ! R38   R(19,43)                1.0917         D2E/DX2 =    0.3473             !
 ! R39   R(20,41)                1.094          D2E/DX2 =    0.3444             !
 ! R40   R(20,42)                1.0889         D2E/DX2 =    0.3568             !
 ! R41   R(20,49)                1.9983         D2E/DX2 =    0.1374             !
 ! R42   R(21,22)                1.2236         D2E/DX2 =    0.8111             !
 ! R43   R(21,23)                1.3681         D2E/DX2 =    0.4601             !
 ! R44   R(23,24)                1.4535         D2E/DX2 =    0.3512             !
 ! R45   R(23,47)                1.0168         D2E/DX2 =    0.4503             !
 ! R46   R(24,25)                1.5299         D2E/DX2 =    0.2926             !
 ! R47   R(24,45)                1.0989         D2E/DX2 =    0.33               !
 ! R48   R(24,46)                1.0898         D2E/DX2 =    0.3556             !
 ! R49   R(25,26)                1.2105         D2E/DX2 =    0.8704             !
 ! R50   R(25,27)                1.3422         D2E/DX2 =    0.4381             !
 ! R51   R(27,48)                1.0054         D2E/DX2 =    0.3547             !
 ! R52   R(51,52)                1.5301         D2E/DX2 =    0.2492             !
 ! R53   R(51,55)                1.5358         D2E/DX2 =    0.246              !
 ! R54   R(51,58)                1.0972         D2E/DX2 =    0.3358             !
 ! R55   R(51,59)                1.0993         D2E/DX2 =    0.3296             !
 ! R56   R(52,56)                1.0977         D2E/DX2 =    0.3336             !
 ! R57   R(52,57)                1.0936         D2E/DX2 =    0.3446             !
 ! R58   R(52,66)                1.8496         D2E/DX2 =    0.1564             !
 ! R59   R(53,54)                1.5307         D2E/DX2 =    0.2481             !
 ! R60   R(53,60)                1.0979         D2E/DX2 =    0.3335             !
 ! R61   R(53,61)                1.0949         D2E/DX2 =    0.3419             !
 ! R62   R(53,66)                1.8462         D2E/DX2 =    0.1597             !
 ! R63   R(54,55)                1.5385         D2E/DX2 =    0.2425             !
 ! R64   R(54,62)                1.0978         D2E/DX2 =    0.3325             !
 ! R65   R(54,63)                1.0987         D2E/DX2 =    0.3324             !
 ! R66   R(55,64)                1.1015         D2E/DX2 =    0.3246             !
 ! R67   R(55,65)                1.0978         D2E/DX2 =    0.3331             !
 ! A1    A(17,1,49)             62.355          D2E/DX2 =    0.0                !
 ! A2    A(17,1,50)            158.96           D2E/DX2 =    0.0115             !
 ! A3    A(17,1,66)            108.8135         D2E/DX2 =    0.0426             !
 ! A4    A(49,1,50)            100.474          D2E/DX2 =    0.0213             !
 ! A5    A(50,1,66)             89.1666         D2E/DX2 =    0.0347             !
 ! A6    A(3,2,32)             107.9824         D2E/DX2 =    0.157              !
 ! A7    A(3,2,33)             110.4327         D2E/DX2 =    0.1536             !
 ! A8    A(32,2,33)            106.1567         D2E/DX2 =    0.0579             !
 ! A9    A(2,3,4)              112.4159         D2E/DX2 =    0.0647             !
 ! A10   A(2,3,6)              108.4538         D2E/DX2 =    0.0881             !
 ! A11   A(2,3,31)             108.2734         D2E/DX2 =    0.0281             !
 ! A12   A(4,3,6)              108.0745         D2E/DX2 =    0.0749             !
 ! A13   A(4,3,31)             111.4255         D2E/DX2 =    0.0286             !
 ! A14   A(6,3,31)             108.0702         D2E/DX2 =    0.0345             !
 ! A15   A(3,4,5)              118.4779         D2E/DX2 =    0.2105             !
 ! A16   A(3,4,8)              121.3827         D2E/DX2 =    0.2712             !
 ! A17   A(5,4,8)              120.1371         D2E/DX2 =    0.2977             !
 ! A18   A(3,6,7)              113.3772         D2E/DX2 =    0.1865             !
 ! A19   A(3,6,28)             107.5024         D2E/DX2 =    0.0755             !
 ! A20   A(3,6,29)             108.242          D2E/DX2 =    0.0812             !
 ! A21   A(7,6,28)             113.0745         D2E/DX2 =    0.069              !
 ! A22   A(7,6,29)             106.3827         D2E/DX2 =    0.065              !
 ! A23   A(28,6,29)            108.0521         D2E/DX2 =    0.0274             !
 ! A24   A(6,7,30)             108.5047         D2E/DX2 =    0.2137             !
 ! A25   A(4,8,9)              128.9814         D2E/DX2 =    0.4501             !
 ! A26   A(4,8,36)             113.8962         D2E/DX2 =    0.1799             !
 ! A27   A(9,8,36)             117.1173         D2E/DX2 =    0.1889             !
 ! A28   A(8,9,10)             113.7153         D2E/DX2 =    0.3244             !
 ! A29   A(8,9,34)             110.229          D2E/DX2 =    0.1202             !
 ! A30   A(8,9,35)             107.5695         D2E/DX2 =    0.1095             !
 ! A31   A(10,9,34)            105.8776         D2E/DX2 =    0.0702             !
 ! A32   A(10,9,35)            112.1749         D2E/DX2 =    0.082              !
 ! A33   A(34,9,35)            107.0907         D2E/DX2 =    0.0256             !
 ! A34   A(9,10,11)            120.1925         D2E/DX2 =    0.2683             !
 ! A35   A(9,10,12)            119.3247         D2E/DX2 =    0.5777             !
 ! A36   A(11,10,12)           120.4829         D2E/DX2 =    0.2953             !
 ! A37   A(10,12,13)           129.8826         D2E/DX2 =    0.5416             !
 ! A38   A(10,12,40)           113.302          D2E/DX2 =    0.2031             !
 ! A39   A(13,12,40)           116.066          D2E/DX2 =    0.2049             !
 ! A40   A(12,13,14)           116.3856         D2E/DX2 =    0.278              !
 ! A41   A(12,13,16)           110.6411         D2E/DX2 =    0.2525             !
 ! A42   A(12,13,39)           109.7909         D2E/DX2 =    0.0297             !
 ! A43   A(14,13,16)           108.6888         D2E/DX2 =    0.0596             !
 ! A44   A(14,13,39)           104.9284         D2E/DX2 =    0.0299             !
 ! A45   A(16,13,39)           105.757          D2E/DX2 =    0.0329             !
 ! A46   A(13,14,15)           119.0239         D2E/DX2 =    0.164              !
 ! A47   A(13,14,18)           117.2769         D2E/DX2 =    0.1236             !
 ! A48   A(15,14,18)           123.5653         D2E/DX2 =    0.1805             !
 ! A49   A(13,16,17)           117.1482         D2E/DX2 =    0.0822             !
 ! A50   A(13,16,37)           108.6373         D2E/DX2 =    0.0658             !
 ! A51   A(13,16,38)           109.4621         D2E/DX2 =    0.0681             !
 ! A52   A(17,16,37)           102.0164         D2E/DX2 =    0.0445             !
 ! A53   A(17,16,38)           110.2777         D2E/DX2 =    0.0479             !
 ! A54   A(37,16,38)           108.8283         D2E/DX2 =    0.0259             !
 ! A55   A(1,17,16)            146.9704         D2E/DX2 =    0.0321             !
 ! A56   A(14,18,19)           119.4489         D2E/DX2 =    0.1809             !
 ! A57   A(14,18,44)           117.8036         D2E/DX2 =    0.0816             !
 ! A58   A(19,18,44)           116.6626         D2E/DX2 =    0.1204             !
 ! A59   A(18,19,20)           110.8196         D2E/DX2 =    0.0588             !
 ! A60   A(18,19,21)           110.582          D2E/DX2 =    0.1555             !
 ! A61   A(18,19,43)           105.7507         D2E/DX2 =    0.043              !
 ! A62   A(20,19,21)           108.7821         D2E/DX2 =    0.155              !
 ! A63   A(20,19,43)           110.349          D2E/DX2 =    0.0336             !
 ! A64   A(21,19,43)           110.545          D2E/DX2 =    0.0287             !
 ! A65   A(19,20,41)           111.6997         D2E/DX2 =    0.0631             !
 ! A66   A(19,20,42)           111.5945         D2E/DX2 =    0.0628             !
 ! A67   A(19,20,49)           113.3797         D2E/DX2 =    0.0706             !
 ! A68   A(41,20,42)           106.4955         D2E/DX2 =    0.0274             !
 ! A69   A(41,20,49)           104.2771         D2E/DX2 =    0.0441             !
 ! A70   A(42,20,49)           108.9258         D2E/DX2 =    0.0404             !
 ! A71   A(19,21,22)           120.3329         D2E/DX2 =    0.2562             !
 ! A72   A(19,21,23)           117.5463         D2E/DX2 =    0.462              !
 ! A73   A(22,21,23)           122.0861         D2E/DX2 =    0.2646             !
 ! A74   A(21,23,24)           127.3971         D2E/DX2 =    0.4699             !
 ! A75   A(21,23,47)           111.7791         D2E/DX2 =    0.1279             !
 ! A76   A(24,23,47)           113.6513         D2E/DX2 =    0.1752             !
 ! A77   A(23,24,25)           109.7834         D2E/DX2 =    0.3741             !
 ! A78   A(23,24,45)           110.0153         D2E/DX2 =    0.0842             !
 ! A79   A(23,24,46)           111.7971         D2E/DX2 =    0.0858             !
 ! A80   A(25,24,45)           107.8654         D2E/DX2 =    0.0783             !
 ! A81   A(25,24,46)           110.4661         D2E/DX2 =    0.0959             !
 ! A82   A(45,24,46)           106.7979         D2E/DX2 =    0.0278             !
 ! A83   A(24,25,26)           122.8596         D2E/DX2 =    0.1923             !
 ! A84   A(24,25,27)           112.2112         D2E/DX2 =    0.2671             !
 ! A85   A(26,25,27)           124.9171         D2E/DX2 =    0.2194             !
 ! A86   A(25,27,48)           109.0066         D2E/DX2 =    0.2396             !
 ! A87   A(1,49,20)             95.6048         D2E/DX2 =    0.1373             !
 ! A88   A(52,51,55)           113.6773         D2E/DX2 =    0.0522             !
 ! A89   A(52,51,58)           109.2713         D2E/DX2 =    0.0379             !
 ! A90   A(52,51,59)           107.5597         D2E/DX2 =    0.0392             !
 ! A91   A(55,51,58)           109.6817         D2E/DX2 =    0.0366             !
 ! A92   A(55,51,59)           109.5834         D2E/DX2 =    0.0387             !
 ! A93   A(58,51,59)           106.8244         D2E/DX2 =    0.015              !
 ! A94   A(51,52,56)           111.5029         D2E/DX2 =    0.0415             !
 ! A95   A(51,52,57)           112.003          D2E/DX2 =    0.0439             !
 ! A96   A(51,52,66)           114.5316         D2E/DX2 =    0.0486             !
 ! A97   A(56,52,57)           107.7301         D2E/DX2 =    0.019              !
 ! A98   A(56,52,66)           105.4317         D2E/DX2 =    0.0378             !
 ! A99   A(57,52,66)           105.1125         D2E/DX2 =    0.0402             !
 ! A100  A(54,53,60)           111.326          D2E/DX2 =    0.0415             !
 ! A101  A(54,53,61)           112.2323         D2E/DX2 =    0.044              !
 ! A102  A(54,53,66)           114.064          D2E/DX2 =    0.0487             !
 ! A103  A(60,53,61)           107.9169         D2E/DX2 =    0.019              !
 ! A104  A(60,53,66)           105.7906         D2E/DX2 =    0.0374             !
 ! A105  A(61,53,66)           105.0242         D2E/DX2 =    0.0404             !
 ! A106  A(53,54,55)           113.0642         D2E/DX2 =    0.0526             !
 ! A107  A(53,54,62)           107.6608         D2E/DX2 =    0.0389             !
 ! A108  A(53,54,63)           109.4885         D2E/DX2 =    0.0379             !
 ! A109  A(55,54,62)           109.5764         D2E/DX2 =    0.0382             !
 ! A110  A(55,54,63)           109.9484         D2E/DX2 =    0.037              !
 ! A111  A(62,54,63)           106.8928         D2E/DX2 =    0.0151             !
 ! A112  A(51,55,54)           113.1327         D2E/DX2 =    0.0493             !
 ! A113  A(51,55,64)           109.5279         D2E/DX2 =    0.0366             !
 ! A114  A(51,55,65)           108.933          D2E/DX2 =    0.0399             !
 ! A115  A(54,55,64)           109.4495         D2E/DX2 =    0.0366             !
 ! A116  A(54,55,65)           109.1136         D2E/DX2 =    0.0397             !
 ! A117  A(64,55,65)           106.4637         D2E/DX2 =    0.015              !
 ! A118  A(1,66,52)            110.9779         D2E/DX2 =    0.0289             !
 ! A119  A(1,66,53)            107.1447         D2E/DX2 =    0.0237             !
 ! A120  A(52,66,53)            98.943          D2E/DX2 =    0.0334             !
 ! A121  L(49,1,66,17,-1)      171.1685         D2E/DX2 =    0.03               !
 ! A122  L(49,1,66,17,-2)      185.254          D2E/DX2 =    0.0259             !
 ! D1    D(49,1,17,16)           2.9289         D2E/DX2 =    0.0278             !
 ! D2    D(50,1,17,16)         -34.8793         D2E/DX2 =    0.0101             !
 ! D3    D(66,1,17,16)         177.6749         D2E/DX2 =    0.0178             !
 ! D4    D(17,1,49,20)        -112.6058         D2E/DX2 =    0.0257             !
 ! D5    D(50,1,49,20)          54.4609         D2E/DX2 =    0.0151             !
 ! D6    D(20,49,66,52)        -76.6635         D2E/DX2 =    0.0151             !
 ! D7    D(20,49,66,53)        178.8894         D2E/DX2 =    0.0151             !
 ! D8    D(17,1,66,52)          39.2975         D2E/DX2 =    0.0104             !
 ! D9    D(17,1,66,53)         -67.7109         D2E/DX2 =    0.0103             !
 ! D10   D(50,1,66,52)        -129.5624         D2E/DX2 =    0.0078             !
 ! D11   D(50,1,66,53)         123.4292         D2E/DX2 =    0.008              !
 ! D12   D(32,2,3,4)            46.1012         D2E/DX2 =    0.0178             !
 ! D13   D(32,2,3,6)           -73.335          D2E/DX2 =    0.0184             !
 ! D14   D(32,2,3,31)          169.629          D2E/DX2 =    0.0142             !
 ! D15   D(33,2,3,4)           -69.5646         D2E/DX2 =    0.0163             !
 ! D16   D(33,2,3,6)           170.9992         D2E/DX2 =    0.0174             !
 ! D17   D(33,2,3,31)           53.9632         D2E/DX2 =    0.0127             !
 ! D18   D(2,3,4,5)            -46.6533         D2E/DX2 =    0.0203             !
 ! D19   D(2,3,4,8)            132.8023         D2E/DX2 =    0.022              !
 ! D20   D(6,3,4,5)             73.0038         D2E/DX2 =    0.0335             !
 ! D21   D(6,3,4,8)           -107.5407         D2E/DX2 =    0.0457             !
 ! D22   D(31,3,4,5)          -168.4042         D2E/DX2 =    0.0143             !
 ! D23   D(31,3,4,8)            11.0514         D2E/DX2 =    0.0171             !
 ! D24   D(2,3,6,7)            172.477          D2E/DX2 =    0.0227             !
 ! D25   D(2,3,6,28)           -61.7893         D2E/DX2 =    0.0186             !
 ! D26   D(2,3,6,29)            54.7015         D2E/DX2 =    0.0198             !
 ! D27   D(4,3,6,7)             50.3519         D2E/DX2 =    0.0247             !
 ! D28   D(4,3,6,28)           176.0855         D2E/DX2 =    0.0211             !
 ! D29   D(4,3,6,29)           -67.4236         D2E/DX2 =    0.0204             !
 ! D30   D(31,3,6,7)           -70.3566         D2E/DX2 =    0.0192             !
 ! D31   D(31,3,6,28)           55.377          D2E/DX2 =    0.0155             !
 ! D32   D(31,3,6,29)          171.8679         D2E/DX2 =    0.0164             !
 ! D33   D(3,4,8,9)             -3.8444         D2E/DX2 =    0.0201             !
 ! D34   D(3,4,8,36)           175.2998         D2E/DX2 =    0.0116             !
 ! D35   D(5,4,8,9)            175.6022         D2E/DX2 =    0.0371             !
 ! D36   D(5,4,8,36)            -5.2535         D2E/DX2 =    0.0163             !
 ! D37   D(3,6,7,30)            60.7919         D2E/DX2 =    0.0229             !
 ! D38   D(28,6,7,30)          -61.9111         D2E/DX2 =    0.0263             !
 ! D39   D(29,6,7,30)          179.6432         D2E/DX2 =    0.0283             !
 ! D40   D(4,8,9,10)            88.9446         D2E/DX2 =    0.0334             !
 ! D41   D(4,8,9,34)           -29.7629         D2E/DX2 =    0.015              !
 ! D42   D(4,8,9,35)          -146.1997         D2E/DX2 =    0.027              !
 ! D43   D(36,8,9,10)          -90.1763         D2E/DX2 =    0.0256             !
 ! D44   D(36,8,9,34)          151.1161         D2E/DX2 =    0.0222             !
 ! D45   D(36,8,9,35)           34.6793         D2E/DX2 =    0.0162             !
 ! D46   D(8,9,10,11)          -89.6519         D2E/DX2 =    0.0968             !
 ! D47   D(8,9,10,12)           90.3751         D2E/DX2 =    0.1914             !
 ! D48   D(34,9,10,11)          31.5191         D2E/DX2 =    0.0204             !
 ! D49   D(34,9,10,12)        -148.4539         D2E/DX2 =    0.0587             !
 ! D50   D(35,9,10,11)         147.9985         D2E/DX2 =    0.0256             !
 ! D51   D(35,9,10,12)         -31.9745         D2E/DX2 =    0.0427             !
 ! D52   D(9,10,12,13)           8.0352         D2E/DX2 =    0.0435             !
 ! D53   D(9,10,12,40)         177.575          D2E/DX2 =    0.0566             !
 ! D54   D(11,10,12,13)       -171.9377         D2E/DX2 =    0.0777             !
 ! D55   D(11,10,12,40)         -2.3979         D2E/DX2 =    0.0238             !
 ! D56   D(10,12,13,14)        -99.7666         D2E/DX2 =    0.1507             !
 ! D57   D(10,12,13,16)        135.5457         D2E/DX2 =    0.0844             !
 ! D58   D(10,12,13,39)         19.1893         D2E/DX2 =    0.0284             !
 ! D59   D(40,12,13,14)         90.9309         D2E/DX2 =    0.0424             !
 ! D60   D(40,12,13,16)        -33.7568         D2E/DX2 =    0.0235             !
 ! D61   D(40,12,13,39)       -150.1132         D2E/DX2 =    0.0249             !
 ! D62   D(12,13,14,15)        154.6321         D2E/DX2 =    0.1037             !
 ! D63   D(12,13,14,18)        -29.4226         D2E/DX2 =    0.0788             !
 ! D64   D(16,13,14,15)        -79.6905         D2E/DX2 =    0.0168             !
 ! D65   D(16,13,14,18)         96.2548         D2E/DX2 =    0.0372             !
 ! D66   D(39,13,14,15)         33.0696         D2E/DX2 =    0.0152             !
 ! D67   D(39,13,14,18)       -150.9851         D2E/DX2 =    0.0334             !
 ! D68   D(12,13,16,17)         48.3926         D2E/DX2 =    0.0231             !
 ! D69   D(12,13,16,37)        -66.4331         D2E/DX2 =    0.0327             !
 ! D70   D(12,13,16,38)        174.8546         D2E/DX2 =    0.0346             !
 ! D71   D(14,13,16,17)        -80.5654         D2E/DX2 =    0.0493             !
 ! D72   D(14,13,16,37)        164.6089         D2E/DX2 =    0.028              !
 ! D73   D(14,13,16,38)         45.8965         D2E/DX2 =    0.0273             !
 ! D74   D(39,13,16,17)        167.2238         D2E/DX2 =    0.0239             !
 ! D75   D(39,13,16,37)         52.3981         D2E/DX2 =    0.0149             !
 ! D76   D(39,13,16,38)        -66.3143         D2E/DX2 =    0.0143             !
 ! D77   D(13,14,18,19)       -149.3601         D2E/DX2 =    0.094              !
 ! D78   D(13,14,18,44)          2.3182         D2E/DX2 =    0.0501             !
 ! D79   D(15,14,18,19)         26.3845         D2E/DX2 =    0.044              !
 ! D80   D(15,14,18,44)        178.0628         D2E/DX2 =    0.0342             !
 ! D81   D(13,16,17,1)          84.2908         D2E/DX2 =    0.0406             !
 ! D82   D(37,16,17,1)        -157.2627         D2E/DX2 =    0.028              !
 ! D83   D(38,16,17,1)         -41.7692         D2E/DX2 =    0.0246             !
 ! D84   D(14,18,19,20)         98.9587         D2E/DX2 =    0.0262             !
 ! D85   D(14,18,19,21)       -140.328          D2E/DX2 =    0.0874             !
 ! D86   D(14,18,19,43)        -20.6314         D2E/DX2 =    0.0264             !
 ! D87   D(44,18,19,20)        -53.0339         D2E/DX2 =    0.0239             !
 ! D88   D(44,18,19,21)         67.6793         D2E/DX2 =    0.0434             !
 ! D89   D(44,18,19,43)       -172.6241         D2E/DX2 =    0.0235             !
 ! D90   D(18,19,20,41)       -171.5836         D2E/DX2 =    0.0194             !
 ! D91   D(18,19,20,42)         69.3268         D2E/DX2 =    0.0234             !
 ! D92   D(18,19,20,49)        -54.119          D2E/DX2 =    0.0258             !
 ! D93   D(21,19,20,41)         66.6419         D2E/DX2 =    0.031              !
 ! D94   D(21,19,20,42)        -52.4477         D2E/DX2 =    0.0249             !
 ! D95   D(21,19,20,49)       -175.8935         D2E/DX2 =    0.0536             !
 ! D96   D(43,19,20,41)        -54.79           D2E/DX2 =    0.0153             !
 ! D97   D(43,19,20,42)       -173.8796         D2E/DX2 =    0.0172             !
 ! D98   D(43,19,20,49)         62.6746         D2E/DX2 =    0.016              !
 ! D99   D(18,19,21,22)       -101.2665         D2E/DX2 =    0.0666             !
 ! D100  D(18,19,21,23)         80.8311         D2E/DX2 =    0.1618             !
 ! D101  D(20,19,21,22)         20.6526         D2E/DX2 =    0.043              !
 ! D102  D(20,19,21,23)       -157.2498         D2E/DX2 =    0.1112             !
 ! D103  D(43,19,21,22)        141.9647         D2E/DX2 =    0.0349             !
 ! D104  D(43,19,21,23)        -35.9378         D2E/DX2 =    0.0537             !
 ! D105  D(19,20,49,1)         135.1909         D2E/DX2 =    0.0347             !
 ! D106  D(41,20,49,1)        -103.0961         D2E/DX2 =    0.0219             !
 ! D107  D(42,20,49,1)          10.2939         D2E/DX2 =    0.0237             !
 ! D108  D(19,21,23,24)        -22.2824         D2E/DX2 =    0.0966             !
 ! D109  D(19,21,23,47)       -170.4102         D2E/DX2 =    0.0627             !
 ! D110  D(22,21,23,24)        159.8545         D2E/DX2 =    0.1228             !
 ! D111  D(22,21,23,47)         11.7266         D2E/DX2 =    0.0387             !
 ! D112  D(21,23,24,25)       -103.5274         D2E/DX2 =    0.0797             !
 ! D113  D(21,23,24,45)        137.9172         D2E/DX2 =    0.0352             !
 ! D114  D(21,23,24,46)         19.4319         D2E/DX2 =    0.0235             !
 ! D115  D(47,23,24,25)         44.1084         D2E/DX2 =    0.0399             !
 ! D116  D(47,23,24,45)        -74.447          D2E/DX2 =    0.0176             !
 ! D117  D(47,23,24,46)        167.0677         D2E/DX2 =    0.0312             !
 ! D118  D(23,24,25,26)        -24.1825         D2E/DX2 =    0.0247             !
 ! D119  D(23,24,25,27)        157.0251         D2E/DX2 =    0.0533             !
 ! D120  D(45,24,25,26)         95.6922         D2E/DX2 =    0.0245             !
 ! D121  D(45,24,25,27)        -83.1002         D2E/DX2 =    0.027              !
 ! D122  D(46,24,25,26)       -147.9234         D2E/DX2 =    0.0256             !
 ! D123  D(46,24,25,27)         33.2841         D2E/DX2 =    0.0234             !
 ! D124  D(24,25,27,48)       -173.8103         D2E/DX2 =    0.0575             !
 ! D125  D(26,25,27,48)          7.4268         D2E/DX2 =    0.0235             !
 ! D126  D(55,51,52,56)         62.8105         D2E/DX2 =    0.0162             !
 ! D127  D(55,51,52,57)       -176.3773         D2E/DX2 =    0.0154             !
 ! D128  D(55,51,52,66)        -56.8051         D2E/DX2 =    0.0148             !
 ! D129  D(58,51,52,56)       -174.3087         D2E/DX2 =    0.0165             !
 ! D130  D(58,51,52,57)        -53.4965         D2E/DX2 =    0.0151             !
 ! D131  D(58,51,52,66)         66.0757         D2E/DX2 =    0.0165             !
 ! D132  D(59,51,52,56)        -58.6986         D2E/DX2 =    0.0153             !
 ! D133  D(59,51,52,57)         62.1136         D2E/DX2 =    0.0147             !
 ! D134  D(59,51,52,66)       -178.3142         D2E/DX2 =    0.0158             !
 ! D135  D(52,51,55,54)         59.6298         D2E/DX2 =    0.0151             !
 ! D136  D(52,51,55,64)        -62.762          D2E/DX2 =    0.0165             !
 ! D137  D(52,51,55,65)       -178.8379         D2E/DX2 =    0.0158             !
 ! D138  D(58,51,55,54)        -63.0256         D2E/DX2 =    0.0168             !
 ! D139  D(58,51,55,64)        174.5826         D2E/DX2 =    0.017              !
 ! D140  D(58,51,55,65)         58.5068         D2E/DX2 =    0.0157             !
 ! D141  D(59,51,55,54)       -179.9954         D2E/DX2 =    0.016              !
 ! D142  D(59,51,55,64)         57.6128         D2E/DX2 =    0.0156             !
 ! D143  D(59,51,55,65)        -58.4631         D2E/DX2 =    0.015              !
 ! D144  D(51,52,66,1)         -64.3498         D2E/DX2 =    0.0179             !
 ! D145  D(51,52,66,53)         47.9798         D2E/DX2 =    0.0155             !
 ! D146  D(56,52,66,1)         172.6958         D2E/DX2 =    0.0179             !
 ! D147  D(56,52,66,53)        -74.9746         D2E/DX2 =    0.0189             !
 ! D148  D(57,52,66,1)          59.0058         D2E/DX2 =    0.0161             !
 ! D149  D(57,52,66,53)        171.3354         D2E/DX2 =    0.0174             !
 ! D150  D(60,53,54,55)        -60.6687         D2E/DX2 =    0.0165             !
 ! D151  D(60,53,54,62)         60.5131         D2E/DX2 =    0.0154             !
 ! D152  D(60,53,54,63)        176.3725         D2E/DX2 =    0.0166             !
 ! D153  D(61,53,54,55)        178.2435         D2E/DX2 =    0.0157             !
 ! D154  D(61,53,54,62)        -60.5747         D2E/DX2 =    0.0147             !
 ! D155  D(61,53,54,63)         55.2846         D2E/DX2 =    0.0153             !
 ! D156  D(66,53,54,55)         58.9531         D2E/DX2 =    0.0154             !
 ! D157  D(66,53,54,62)       -179.8651         D2E/DX2 =    0.0158             !
 ! D158  D(66,53,54,63)        -64.0058         D2E/DX2 =    0.0167             !
 ! D159  D(54,53,66,1)          66.2946         D2E/DX2 =    0.0217             !
 ! D160  D(54,53,66,52)        -49.0342         D2E/DX2 =    0.0161             !
 ! D161  D(60,53,66,1)        -171.0084         D2E/DX2 =    0.0205             !
 ! D162  D(60,53,66,52)         73.6627         D2E/DX2 =    0.0196             !
 ! D163  D(61,53,66,1)         -56.997          D2E/DX2 =    0.0187             !
 ! D164  D(61,53,66,52)       -172.3259         D2E/DX2 =    0.0184             !
 ! D165  D(53,54,55,51)        -60.7165         D2E/DX2 =    0.0152             !
 ! D166  D(53,54,55,64)         61.719          D2E/DX2 =    0.0165             !
 ! D167  D(53,54,55,65)        177.8529         D2E/DX2 =    0.0159             !
 ! D168  D(62,54,55,51)        179.1915         D2E/DX2 =    0.0161             !
 ! D169  D(62,54,55,64)        -58.373          D2E/DX2 =    0.0157             !
 ! D170  D(62,54,55,65)         57.7608         D2E/DX2 =    0.015              !
 ! D171  D(63,54,55,51)         61.9869         D2E/DX2 =    0.017              !
 ! D172  D(63,54,55,64)       -175.5776         D2E/DX2 =    0.0171             !
 ! D173  D(63,54,55,65)        -59.4437         D2E/DX2 =    0.0158             !
 --------------------------------------------------------------------------------
 Trust Radius=3.00D-01 FncErr=1.00D-07 GrdErr=1.00D-06
 Number of steps in this run=    372 maximum allowed number of steps=    396.
 Search for a saddle point of order  1.
 GradGradGradGradGradGradGradGradGradGradGradGradGradGradGradGradGradGrad

 Stoichiometry    C18H31AuClN5O7S2Se
 Framework group  C1[X(C18H31AuClN5O7S2Se)]
 Deg. of freedom   192
 Full point group                 C1      NOp   1
 Largest Abelian subgroup         C1      NOp   1
 Largest concise Abelian subgroup C1      NOp   1
                         Standard orientation:                         
 ---------------------------------------------------------------------
 Center     Atomic      Atomic             Coordinates (Angstroms)
 Number     Number       Type             X           Y           Z
 ---------------------------------------------------------------------
      1         79           0       -3.185255   -0.361495   -0.157539
      2          7           0        7.652284    3.017259   -0.561363
      3          6           0        6.235854    2.659519   -0.603803
      4          6           0        5.959053    1.290218    0.030258
      5          8           0        6.690045    0.337153   -0.278155
      6          6           0        5.788968    2.602104   -2.085336
      7          8           0        4.481701    2.101973   -2.256434
      8          7           0        4.941676    1.112862    0.923740
      9          6           0        4.032285    2.101554    1.483805
     10          6           0        2.759964    2.319514    0.643141
     11          8           0        2.744829    3.167479   -0.247360
     12          7           0        1.651394    1.562169    0.898142
     13          6           0        1.388669    0.628311    1.982664
     14          6           0        1.572647   -0.865824    1.658825
     15          8           0        1.831025   -1.644420    2.569777
     16          6           0       -0.035288    0.840743    2.553060
     17         16           0       -1.430962    0.949217    1.330707
     18          7           0        1.352018   -1.258505    0.369913
     19          6           0        0.848957   -2.608174    0.104431
     20          6           0       -0.666763   -2.588436   -0.132108
     21          6           0        1.539772   -3.210716   -1.141804
     22          8           0        0.962253   -3.228652   -2.220353
     23          7           0        2.784826   -3.752589   -0.975053
     24          6           0        3.738337   -3.464710    0.083594
     25          6           0        4.845668   -2.554117   -0.450420
     26          8           0        5.138382   -2.494550   -1.623438
     27          8           0        5.453525   -1.866519    0.528953
     28          1           0        5.925210    3.607016   -2.511113
     29          1           0        6.454605    1.914981   -2.617698
     30          1           0        3.861830    2.689967   -1.787881
     31          1           0        5.667059    3.451619   -0.108300
     32          1           0        8.191323    2.205720   -0.864210
     33          1           0        7.942218    3.208845    0.396411
     34          1           0        4.521890    3.074152    1.541620
     35          1           0        3.802774    1.796023    2.508014
     36          1           0        4.812735    0.147145    1.214760
     37          1           0       -0.076650    1.825526    3.034960
     38          1           0       -0.245755    0.073907    3.300287
     39          1           0        2.072553    0.822793    2.812079
     40          1           0        0.852872    1.808499    0.316596
     41          1           0       -1.081118   -3.599555   -0.184903
     42          1           0       -0.919286   -2.101298   -1.072711
     43          1           0        1.086649   -3.193506    0.994811
     44          1           0        1.115542   -0.543596   -0.308059
     45          1           0        4.206341   -4.396057    0.431770
     46          1           0        3.256719   -3.011314    0.949704
     47          1           0        3.220131   -3.978923   -1.865644
     48          1           0        6.098033   -1.212903    0.118780
     49         34           0       -1.688605   -1.713653    1.345617
     50         17           0       -4.152640   -2.212912   -1.638834
     51          6           0       -3.012571    3.568984   -0.789295
     52          6           0       -3.626253    2.732003   -1.913611
     53          6           0       -5.645143    2.126412   -0.056630
     54          6           0       -4.841294    2.993284    0.915610
     55          6           0       -4.044477    4.106326    0.213299
     56          1           0       -4.311240    3.327667   -2.530718
     57          1           0       -2.863257    2.311181   -2.574379
     58          1           0       -2.260934    2.969561   -0.260498
     59          1           0       -2.478908    4.409707   -1.255068
     60          1           0       -6.380662    2.724492   -0.610343
     61          1           0       -6.182187    1.320310    0.453914
     62          1           0       -5.548616    3.439832    1.626635
     63          1           0       -4.161728    2.356500    1.498599
     64          1           0       -4.740732    4.785717   -0.303407
     65          1           0       -3.525571    4.709136    0.969929
     66         16           0       -4.618355    1.281322   -1.337256
 ---------------------------------------------------------------------
 Rotational constants (GHZ):      0.1167047      0.0421877      0.0359502
 General basis read from cards:  (5D, 7F)
 ======================================================================================================
                                       Pseudopotential Parameters
 ======================================================================================================
  Center     Atomic      Valence      Angular      Power
  Number     Number     Electrons     Momentum     of R      Exponent        Coefficient   SO-Coeffient
 ======================================================================================================
    1         79           19
                                      G and up 
                                                     1      622.6287956      -60.00000000    0.00000000
                                                     2      136.2843607     -555.52923120    0.00000000
                                                     2       33.1549781     -168.00197850    0.00000000
                                                     2        9.9894895      -63.03998750    0.00000000
                                                     2        3.0481312       -4.25166810    0.00000000
                                      S - G
                                                     0      194.7374304        3.00000000    0.00000000
                                                     1      351.5327447       38.60208800    0.00000000
                                                     2      122.3270402      864.83707270    0.00000000
                                                     2       32.0914617      374.99355200    0.00000000
                                                     2        5.2451812      289.79101000    0.00000000
                                                     2        4.4916223     -152.45327730    0.00000000
                                      P - G
                                                     0      420.6158801        2.00000000    0.00000000
                                                     1      109.4417815       73.88856250    0.00000000
                                                     2       34.1714280      326.67298720    0.00000000
                                                     2        5.9879750      126.58145910    0.00000000
                                      D - G
                                                     0      219.2666158        3.00000000    0.00000000
                                                     1      122.7297786       55.67931490    0.00000000
                                                     2       63.1063369      449.19873350    0.00000000
                                                     2       18.3684520      215.02690910    0.00000000
                                                     2        4.4972844       64.08409950    0.00000000
                                      F - G
                                                     0      108.5506037        4.00000000    0.00000000
                                                     1       56.4795527       51.80653350    0.00000000
                                                     2       29.2069159      231.21831130    0.00000000
                                                     2        9.5440543      119.00473860    0.00000000
                                                     2        2.8965118       15.34241880    0.00000000
    2          7
                                   No pseudopotential on this center.
    3          6
                                   No pseudopotential on this center.
    4          6
                                   No pseudopotential on this center.
    5          8
                                   No pseudopotential on this center.
    6          6
                                   No pseudopotential on this center.
    7          8
                                   No pseudopotential on this center.
    8          7
                                   No pseudopotential on this center.
    9          6
                                   No pseudopotential on this center.
   10          6
                                   No pseudopotential on this center.
   11          8
                                   No pseudopotential on this center.
   12          7
                                   No pseudopotential on this center.
   13          6
                                   No pseudopotential on this center.
   14          6
                                   No pseudopotential on this center.
   15          8
                                   No pseudopotential on this center.
   16          6
                                   No pseudopotential on this center.
   17         16
                                   No pseudopotential on this center.
   18          7
                                   No pseudopotential on this center.
   19          6
                                   No pseudopotential on this center.
   20          6
                                   No pseudopotential on this center.
   21          6
                                   No pseudopotential on this center.
   22          8
                                   No pseudopotential on this center.
   23          7
                                   No pseudopotential on this center.
   24          6
                                   No pseudopotential on this center.
   25          6
                                   No pseudopotential on this center.
   26          8
                                   No pseudopotential on this center.
   27          8
                                   No pseudopotential on this center.
   28          1
                                   No pseudopotential on this center.
   29          1
                                   No pseudopotential on this center.
   30          1
                                   No pseudopotential on this center.
   31          1
                                   No pseudopotential on this center.
   32          1
                                   No pseudopotential on this center.
   33          1
                                   No pseudopotential on this center.
   34          1
                                   No pseudopotential on this center.
   35          1
                                   No pseudopotential on this center.
   36          1
                                   No pseudopotential on this center.
   37          1
                                   No pseudopotential on this center.
   38          1
                                   No pseudopotential on this center.
   39          1
                                   No pseudopotential on this center.
   40          1
                                   No pseudopotential on this center.
   41          1
                                   No pseudopotential on this center.
   42          1
                                   No pseudopotential on this center.
   43          1
                                   No pseudopotential on this center.
   44          1
                                   No pseudopotential on this center.
   45          1
                                   No pseudopotential on this center.
   46          1
                                   No pseudopotential on this center.
   47          1
                                   No pseudopotential on this center.
   48          1
                                   No pseudopotential on this center.
   49         34
                                   No pseudopotential on this center.
   50         17
                                   No pseudopotential on this center.
   51          6
                                   No pseudopotential on this center.
   52          6
                                   No pseudopotential on this center.
   53          6
                                   No pseudopotential on this center.
   54          6
                                   No pseudopotential on this center.
   55          6
                                   No pseudopotential on this center.
   56          1
                                   No pseudopotential on this center.
   57          1
                                   No pseudopotential on this center.
   58          1
                                   No pseudopotential on this center.
   59          1
                                   No pseudopotential on this center.
   60          1
                                   No pseudopotential on this center.
   61          1
                                   No pseudopotential on this center.
   62          1
                                   No pseudopotential on this center.
   63          1
                                   No pseudopotential on this center.
   64          1
                                   No pseudopotential on this center.
   65          1
                                   No pseudopotential on this center.
   66         16
                                   No pseudopotential on this center.
 ======================================================================================================
 There are   647 symmetry adapted cartesian basis functions of A   symmetry.
 There are   606 symmetry adapted basis functions of A   symmetry.
   606 basis functions,  1251 primitive gaussians,   647 cartesian basis functions
   166 alpha electrons      166 beta electrons
       nuclear repulsion energy      5939.1780743189 Hartrees.
 NAtoms=   66 NActive=   66 NUniq=   66 SFac= 1.00D+00 NAtFMM=   60 NAOKFM=T Big=T
 Integral buffers will be    131072 words long.
 Raffenetti 2 integral format.
 Two-electron integral symmetry is turned on.
 One-electron integrals computed using PRISM.
   1 Symmetry operations used in ECPInt.
 ECPInt:  NShTT=   24976 NPrTT=  152314 LenC2=   18609 LenP2D=   58838.
 LDataN:  DoStor=T MaxTD1= 7 Len=  274
 NBasis=   606 RedAO= T EigKep=  2.33D-03  NBF=   606
 NBsUse=   606 1.00D-06 EigRej= -1.00D+00 NBFU=   606
 Defaulting to unpruned grid for atomic number  79.
 ExpMin= 2.79D-02 ExpMax= 5.61D+05 ExpMxC= 5.42D+03 IAcc=3 IRadAn=         5 AccDes= 0.00D+00
 Harris functional with IExCor=  402 and IRadAn=       5 diagonalized for initial guess.
 HarFok:  IExCor=  402 AccDes= 0.00D+00 IRadAn=         5 IDoV= 1 UseB2=F ITyADJ=14
 ICtDFT=  3500011 ScaDFX=  1.000000  1.000000  1.000000  1.000000
 Defaulting to unpruned grid for atomic number  79.
 Defaulting to unpruned grid for atomic number  79.
 Defaulting to unpruned grid for atomic number  79.
 Defaulting to unpruned grid for atomic number  79.
 Defaulting to unpruned grid for atomic number  79.
 Defaulting to unpruned grid for atomic number  79.
 Defaulting to unpruned grid for atomic number  79.
 Defaulting to unpruned grid for atomic number  79.
 Defaulting to unpruned grid for atomic number  79.
 Defaulting to unpruned grid for atomic number  79.
 Defaulting to unpruned grid for atomic number  79.
 Defaulting to unpruned grid for atomic number  79.
 Defaulting to unpruned grid for atomic number  79.
 Defaulting to unpruned grid for atomic number  79.
 Defaulting to unpruned grid for atomic number  79.
 FoFCou: FMM=F IPFlag=           0 FMFlag=      100000 FMFlg1=        2001
         NFxFlg=           0 DoJE=T BraDBF=F KetDBF=T FulRan=T
         wScrn=  0.000000 ICntrl=     500 IOpCl=  0 I1Cent=   200000004 NGrid=           0
         NMat0=    1 NMatS0=      1 NMatT0=    0 NMatD0=    1 NMtDS0=    0 NMtDT0=    0
 Petite list used in FoFCou.
 Requested convergence on RMS density matrix=1.00D-08 within 128 cycles.
 Requested convergence on MAX density matrix=1.00D-06.
 Requested convergence on             energy=1.00D-06.
 No special actions if energy rises.
 Defaulting to unpruned grid for atomic number  79.
 Defaulting to unpruned grid for atomic number  79.
 Defaulting to unpruned grid for atomic number  79.
 Defaulting to unpruned grid for atomic number  79.
 Defaulting to unpruned grid for atomic number  79.
 Defaulting to unpruned grid for atomic number  79.
 Defaulting to unpruned grid for atomic number  79.
 Defaulting to unpruned grid for atomic number  79.
 Defaulting to unpruned grid for atomic number  79.
 Defaulting to unpruned grid for atomic number  79.
 Defaulting to unpruned grid for atomic number  79.
 Defaulting to unpruned grid for atomic number  79.
 Defaulting to unpruned grid for atomic number  79.
 Defaulting to unpruned grid for atomic number  79.
 Defaulting to unpruned grid for atomic number  79.
 EnCoef did     5 forward-backward iterations
 EnCoef did   100 forward-backward iterations
 EnCoef did     7 forward-backward iterations
 SCF Done:  E(RB3LYP) =  -5295.92687813     A.U. after   20 cycles
            NFock= 20  Conv=0.36D-08     -V/T= 2.0185

 **********************************************************************

            Population analysis using the SCF density.

 **********************************************************************

 Orbital symmetries:
       Occupied  (A) (A) (A) (A) (A) (A) (A) (A) (A) (A) (A) (A)
                 (A) (A) (A) (A) (A) (A) (A) (A) (A) (A) (A) (A)
                 (A) (A) (A) (A) (A) (A) (A) (A) (A) (A) (A) (A)
                 (A) (A) (A) (A) (A) (A) (A) (A) (A) (A) (A) (A)
                 (A) (A) (A) (A) (A) (A) (A) (A) (A) (A) (A) (A)
                 (A) (A) (A) (A) (A) (A) (A) (A) (A) (A) (A) (A)
                 (A) (A) (A) (A) (A) (A) (A) (A) (A) (A) (A) (A)
                 (A) (A) (A) (A) (A) (A) (A) (A) (A) (A) (A) (A)
                 (A) (A) (A) (A) (A) (A) (A) (A) (A) (A) (A) (A)
                 (A) (A) (A) (A) (A) (A) (A) (A) (A) (A) (A) (A)
                 (A) (A) (A) (A) (A) (A) (A) (A) (A) (A) (A) (A)
                 (A) (A) (A) (A) (A) (A) (A) (A) (A) (A) (A) (A)
                 (A) (A) (A) (A) (A) (A) (A) (A) (A) (A) (A) (A)
                 (A) (A) (A) (A) (A) (A) (A) (A) (A) (A)
       Virtual   (A) (A) (A) (A) (A) (A) (A) (A) (A) (A) (A) (A)
                 (A) (A) (A) (A) (A) (A) (A) (A) (A) (A) (A) (A)
                 (A) (A) (A) (A) (A) (A) (A) (A) (A) (A) (A) (A)
                 (A) (A) (A) (A) (A) (A) (A) (A) (A) (A) (A) (A)
                 (A) (A) (A) (A) (A) (A) (A) (A) (A) (A) (A) (A)
                 (A) (A) (A) (A) (A) (A) (A) (A) (A) (A) (A) (A)
                 (A) (A) (A) (A) (A) (A) (A) (A) (A) (A) (A) (A)
                 (A) (A) (A) (A) (A) (A) (A) (A) (A) (A) (A) (A)
                 (A) (A) (A) (A) (A) (A) (A) (A) (A) (A) (A) (A)
                 (A) (A) (A) (A) (A) (A) (A) (A) (A) (A) (A) (A)
                 (A) (A) (A) (A) (A) (A) (A) (A) (A) (A) (A) (A)
                 (A) (A) (A) (A) (A) (A) (A) (A) (A) (A) (A) (A)
                 (A) (A) (A) (A) (A) (A) (A) (A) (A) (A) (A) (A)
                 (A) (A) (A) (A) (A) (A) (A) (A) (A) (A) (A) (A)
                 (A) (A) (A) (A) (A) (A) (A) (A) (A) (A) (A) (A)
                 (A) (A) (A) (A) (A) (A) (A) (A) (A) (A) (A) (A)
                 (A) (A) (A) (A) (A) (A) (A) (A) (A) (A) (A) (A)
                 (A) (A) (A) (A) (A) (A) (A) (A) (A) (A) (A) (A)
                 (A) (A) (A) (A) (A) (A) (A) (A) (A) (A) (A) (A)
                 (A) (A) (A) (A) (A) (A) (A) (A) (A) (A) (A) (A)
                 (A) (A) (A) (A) (A) (A) (A) (A) (A) (A) (A) (A)
                 (A) (A) (A) (A) (A) (A) (A) (A) (A) (A) (A) (A)
                 (A) (A) (A) (A) (A) (A) (A) (A) (A) (A) (A) (A)
                 (A) (A) (A) (A) (A) (A) (A) (A) (A) (A) (A) (A)
                 (A) (A) (A) (A) (A) (A) (A) (A) (A) (A) (A) (A)
                 (A) (A) (A) (A) (A) (A) (A) (A) (A) (A) (A) (A)
                 (A) (A) (A) (A) (A) (A) (A) (A) (A) (A) (A) (A)
                 (A) (A) (A) (A) (A) (A) (A) (A) (A) (A) (A) (A)
                 (A) (A) (A) (A) (A) (A) (A) (A) (A) (A) (A) (A)
                 (A) (A) (A) (A) (A) (A) (A) (A) (A) (A) (A) (A)
                 (A) (A) (A) (A) (A) (A) (A) (A) (A) (A) (A) (A)
                 (A) (A) (A) (A) (A) (A) (A) (A) (A) (A) (A) (A)
                 (A) (A) (A) (A) (A) (A) (A) (A) (A) (A) (A) (A)
                 (A) (A) (A) (A) (A) (A) (A) (A) (A) (A) (A) (A)
                 (A) (A) (A) (A) (A) (A) (A) (A) (A) (A) (A) (A)
                 (A) (A) (A) (A) (A) (A) (A) (A) (A) (A) (A) (A)
                 (A) (A) (A) (A) (A) (A) (A) (A)
 The electronic state is 1-A.
 Alpha  occ. eigenvalues -- -453.60841-101.43825 -88.92307 -88.90593 -57.32728
 Alpha  occ. eigenvalues --  -52.10294 -52.10157 -52.09973 -19.18058 -19.15252
 Alpha  occ. eigenvalues --  -19.14684 -19.14139 -19.13509 -19.12489 -19.12222
 Alpha  occ. eigenvalues --  -14.39864 -14.38807 -14.38799 -14.36182 -14.31948
 Alpha  occ. eigenvalues --  -10.32912 -10.31801 -10.31738 -10.30860 -10.29773
 Alpha  occ. eigenvalues --  -10.27810 -10.26634 -10.25566 -10.25191 -10.24517
 Alpha  occ. eigenvalues --  -10.24491 -10.23662 -10.23051 -10.22655 -10.22133
 Alpha  occ. eigenvalues --  -10.21235 -10.21214 -10.20852  -9.36735  -7.99680
 Alpha  occ. eigenvalues --   -7.97697  -7.67743  -7.12789  -7.12261  -7.12221
 Alpha  occ. eigenvalues --   -5.95972  -5.95746  -5.95246  -5.94122  -5.93826
 Alpha  occ. eigenvalues --   -5.93122  -5.80765  -5.80287  -5.79604  -4.20283
 Alpha  occ. eigenvalues --   -2.34541  -2.33440  -2.32704  -2.16833  -2.16799
 Alpha  occ. eigenvalues --   -2.16233  -2.15843  -2.15745  -1.09872  -1.07642
 Alpha  occ. eigenvalues --   -1.06924  -1.05967  -1.04528  -1.01247  -1.00736
 Alpha  occ. eigenvalues --   -0.97201  -0.95532  -0.95075  -0.93059  -0.89676
 Alpha  occ. eigenvalues --   -0.87402  -0.83031  -0.80674  -0.79196  -0.79110
 Alpha  occ. eigenvalues --   -0.76934  -0.74994  -0.74526  -0.73257  -0.72709
 Alpha  occ. eigenvalues --   -0.71115  -0.66286  -0.65792  -0.65611  -0.65228
 Alpha  occ. eigenvalues --   -0.63974  -0.63265  -0.62035  -0.61736  -0.59493
 Alpha  occ. eigenvalues --   -0.59067  -0.58964  -0.56742  -0.54237  -0.53629
 Alpha  occ. eigenvalues --   -0.52887  -0.51568  -0.51147  -0.50893  -0.50655
 Alpha  occ. eigenvalues --   -0.50555  -0.49274  -0.49202  -0.48733  -0.48162
 Alpha  occ. eigenvalues --   -0.48132  -0.47403  -0.46971  -0.46517  -0.46313
 Alpha  occ. eigenvalues --   -0.46030  -0.45142  -0.44902  -0.44856  -0.44269
 Alpha  occ. eigenvalues --   -0.43558  -0.43355  -0.43125  -0.42960  -0.42916
 Alpha  occ. eigenvalues --   -0.42421  -0.42159  -0.41325  -0.41026  -0.40789
 Alpha  occ. eigenvalues --   -0.40038  -0.39429  -0.39344  -0.39084  -0.38685
 Alpha  occ. eigenvalues --   -0.38584  -0.38176  -0.37942  -0.37676  -0.36914
 Alpha  occ. eigenvalues --   -0.36038  -0.35132  -0.34857  -0.34170  -0.33839
 Alpha  occ. eigenvalues --   -0.32994  -0.32426  -0.31777  -0.31169  -0.30937
 Alpha  occ. eigenvalues --   -0.30901  -0.29656  -0.29264  -0.29071  -0.28509
 Alpha  occ. eigenvalues --   -0.27979  -0.27846  -0.27498  -0.26982  -0.26301
 Alpha  occ. eigenvalues --   -0.26186  -0.25511  -0.24743  -0.23642  -0.23480
 Alpha  occ. eigenvalues --   -0.21459
 Alpha virt. eigenvalues --   -0.14031  -0.05991  -0.03387  -0.03168  -0.02019
 Alpha virt. eigenvalues --   -0.00439  -0.00288   0.00780   0.01019   0.02126
 Alpha virt. eigenvalues --    0.02305   0.03319   0.03848   0.04346   0.05568
 Alpha virt. eigenvalues --    0.06552   0.07320   0.07852   0.08930   0.09126
 Alpha virt. eigenvalues --    0.09338   0.10223   0.10292   0.10637   0.11224
 Alpha virt. eigenvalues --    0.11652   0.11892   0.12142   0.12193   0.12961
 Alpha virt. eigenvalues --    0.13328   0.13468   0.14150   0.14703   0.14824
 Alpha virt. eigenvalues --    0.14968   0.15569   0.15783   0.16039   0.16347
 Alpha virt. eigenvalues --    0.16561   0.16641   0.16886   0.17271   0.17805
 Alpha virt. eigenvalues --    0.17983   0.18066   0.18520   0.19299   0.19581
 Alpha virt. eigenvalues --    0.19903   0.20067   0.20848   0.21206   0.21328
 Alpha virt. eigenvalues --    0.22258   0.22386   0.23177   0.23794   0.24139
 Alpha virt. eigenvalues --    0.24466   0.24863   0.25046   0.25377   0.25958
 Alpha virt. eigenvalues --    0.26709   0.28248   0.30199   0.30457   0.31370
 Alpha virt. eigenvalues --    0.32049   0.32279   0.33558   0.34247   0.35431
 Alpha virt. eigenvalues --    0.35668   0.36462   0.36628   0.37639   0.38684
 Alpha virt. eigenvalues --    0.38843   0.39435   0.39729   0.40280   0.41990
 Alpha virt. eigenvalues --    0.42915   0.43537   0.44121   0.45285   0.45357
 Alpha virt. eigenvalues --    0.45675   0.46648   0.46858   0.47385   0.48159
 Alpha virt. eigenvalues --    0.48937   0.50117   0.51351   0.51719   0.52226
 Alpha virt. eigenvalues --    0.52534   0.52823   0.53076   0.53408   0.54124
 Alpha virt. eigenvalues --    0.54736   0.55383   0.55511   0.55802   0.56201
 Alpha virt. eigenvalues --    0.56538   0.56632   0.57242   0.58559   0.58884
 Alpha virt. eigenvalues --    0.59364   0.60234   0.60375   0.61011   0.61488
 Alpha virt. eigenvalues --    0.61968   0.62330   0.62784   0.63374   0.63693
 Alpha virt. eigenvalues --    0.63946   0.64334   0.64970   0.65258   0.65706
 Alpha virt. eigenvalues --    0.66249   0.66542   0.66649   0.67311   0.67622
 Alpha virt. eigenvalues --    0.67873   0.68252   0.68946   0.69261   0.70697
 Alpha virt. eigenvalues --    0.71079   0.71298   0.72250   0.72363   0.72785
 Alpha virt. eigenvalues --    0.73477   0.73910   0.74761   0.75963   0.76185
 Alpha virt. eigenvalues --    0.76669   0.76704   0.77398   0.78418   0.78827
 Alpha virt. eigenvalues --    0.79110   0.79549   0.80224   0.80266   0.81377
 Alpha virt. eigenvalues --    0.82132   0.82250   0.82456   0.82612   0.83110
 Alpha virt. eigenvalues --    0.83663   0.83967   0.84527   0.85226   0.85512
 Alpha virt. eigenvalues --    0.85882   0.85978   0.86347   0.86686   0.87087
 Alpha virt. eigenvalues --    0.87303   0.87529   0.87874   0.88042   0.88980
 Alpha virt. eigenvalues --    0.89205   0.89616   0.89924   0.90254   0.90585
 Alpha virt. eigenvalues --    0.90937   0.91155   0.91239   0.91868   0.92017
 Alpha virt. eigenvalues --    0.92222   0.93007   0.93105   0.93294   0.93898
 Alpha virt. eigenvalues --    0.94320   0.94787   0.95696   0.95970   0.96205
 Alpha virt. eigenvalues --    0.96544   0.96837   0.97317   0.97366   0.97902
 Alpha virt. eigenvalues --    0.98358   0.98745   0.99289   0.99664   1.00359
 Alpha virt. eigenvalues --    1.00861   1.02003   1.02523   1.02936   1.03225
 Alpha virt. eigenvalues --    1.03563   1.05559   1.06710   1.07353   1.07597
 Alpha virt. eigenvalues --    1.08376   1.09167   1.09867   1.09934   1.10430
 Alpha virt. eigenvalues --    1.11669   1.11832   1.12461   1.12618   1.13187
 Alpha virt. eigenvalues --    1.14395   1.17461   1.19044   1.19466   1.20715
 Alpha virt. eigenvalues --    1.21332   1.21878   1.22854   1.23669   1.25083
 Alpha virt. eigenvalues --    1.25808   1.26979   1.27474   1.28851   1.29381
 Alpha virt. eigenvalues --    1.30135   1.30870   1.32841   1.33648   1.36141
 Alpha virt. eigenvalues --    1.37698   1.39339   1.40228   1.41122   1.41308
 Alpha virt. eigenvalues --    1.41946   1.42216   1.44291   1.44862   1.45095
 Alpha virt. eigenvalues --    1.45581   1.47231   1.48440   1.50347   1.51769
 Alpha virt. eigenvalues --    1.51993   1.53604   1.54873   1.55514   1.56678
 Alpha virt. eigenvalues --    1.58144   1.58191   1.58785   1.59521   1.61271
 Alpha virt. eigenvalues --    1.61893   1.63129   1.64536   1.66337   1.66686
 Alpha virt. eigenvalues --    1.66933   1.67566   1.68138   1.69128   1.70231
 Alpha virt. eigenvalues --    1.70557   1.70852   1.73131   1.73344   1.74973
 Alpha virt. eigenvalues --    1.75646   1.76127   1.76899   1.77657   1.78220
 Alpha virt. eigenvalues --    1.79302   1.79947   1.80041   1.80987   1.81299
 Alpha virt. eigenvalues --    1.81370   1.82072   1.82688   1.82907   1.83905
 Alpha virt. eigenvalues --    1.84154   1.85485   1.86081   1.86997   1.87107
 Alpha virt. eigenvalues --    1.88550   1.88889   1.88975   1.90265   1.91700
 Alpha virt. eigenvalues --    1.92025   1.92660   1.92997   1.93151   1.93534
 Alpha virt. eigenvalues --    1.94177   1.94392   1.94838   1.95547   1.95705
 Alpha virt. eigenvalues --    1.95840   1.96095   1.96602   1.97085   1.97262
 Alpha virt. eigenvalues --    1.98205   1.98294   1.98937   1.99036   1.99751
 Alpha virt. eigenvalues --    1.99849   2.00632   2.01406   2.02010   2.02226
 Alpha virt. eigenvalues --    2.02336   2.02965   2.04119   2.04604   2.05539
 Alpha virt. eigenvalues --    2.06360   2.07191   2.07287   2.07843   2.08637
 Alpha virt. eigenvalues --    2.09127   2.09666   2.10658   2.10962   2.11812
 Alpha virt. eigenvalues --    2.12290   2.14063   2.14520   2.14874   2.15185
 Alpha virt. eigenvalues --    2.15368   2.16451   2.16623   2.18237   2.20110
 Alpha virt. eigenvalues --    2.21395   2.22989   2.23621   2.25471   2.26203
 Alpha virt. eigenvalues --    2.26402   2.27706   2.28111   2.28829   2.29070
 Alpha virt. eigenvalues --    2.30817   2.31754   2.33046   2.34106   2.34678
 Alpha virt. eigenvalues --    2.36296   2.37092   2.37404   2.38136   2.38761
 Alpha virt. eigenvalues --    2.39956   2.41379   2.42254   2.43924   2.44721
 Alpha virt. eigenvalues --    2.46547   2.49133   2.50538   2.51189   2.51318
 Alpha virt. eigenvalues --    2.53514   2.54991   2.55085   2.55693   2.57173
 Alpha virt. eigenvalues --    2.57436   2.58341   2.59291   2.59491   2.60793
 Alpha virt. eigenvalues --    2.61775   2.62863   2.63022   2.65421   2.65935
 Alpha virt. eigenvalues --    2.66203   2.67641   2.68250   2.69949   2.71118
 Alpha virt. eigenvalues --    2.72404   2.76487   2.82016   2.82734   2.85401
 Alpha virt. eigenvalues --    2.88337   2.89543   2.91576   2.92885   2.94102
 Alpha virt. eigenvalues --    2.97621   2.98109   3.00042   3.00839   3.03917
 Alpha virt. eigenvalues --    3.08887   3.09846   3.12841   3.13448   3.14585
 Alpha virt. eigenvalues --    7.97131  15.55901  15.64015  15.67127  43.05926
          Condensed to atoms (all electrons):
 Mulliken charges:
               1
     1  Au  -0.082028
     2  N   -0.701858
     3  C   -0.108729
     4  C    0.590680
     5  O   -0.520146
     6  C   -0.003388
     7  O   -0.656025
     8  N   -0.585494
     9  C   -0.245015
    10  C    0.561238
    11  O   -0.476328
    12  N   -0.581009
    13  C   -0.058943
    14  C    0.564239
    15  O   -0.472970
    16  C   -0.441252
    17  S   -0.006994
    18  N   -0.567079
    19  C   -0.087230
    20  C   -0.363966
    21  C    0.547560
    22  O   -0.444440
    23  N   -0.552890
    24  C   -0.255667
    25  C    0.548879
    26  O   -0.412564
    27  O   -0.620449
    28  H    0.140399
    29  H    0.158627
    30  H    0.425941
    31  H    0.140300
    32  H    0.319878
    33  H    0.300382
    34  H    0.198662
    35  H    0.175619
    36  H    0.357978
    37  H    0.194579
    38  H    0.223374
    39  H    0.179736
    40  H    0.360357
    41  H    0.229959
    42  H    0.259148
    43  H    0.201783
    44  H    0.350682
    45  H    0.190944
    46  H    0.208242
    47  H    0.351446
    48  H    0.457535
    49  Se  -0.021089
    50  Cl  -0.376768
    51  C   -0.279136
    52  C   -0.436075
    53  C   -0.437816
    54  C   -0.279474
    55  C   -0.258917
    56  H    0.190489
    57  H    0.213634
    58  H    0.185215
    59  H    0.159877
    60  H    0.189584
    61  H    0.220019
    62  H    0.158473
    63  H    0.197016
    64  H    0.137311
    65  H    0.151549
    66  S    0.292404
 Sum of Mulliken charges =   0.00000
 Mulliken charges with hydrogens summed into heavy atoms:
               1
     1  Au  -0.082028
     2  N   -0.081598
     3  C    0.031572
     4  C    0.590680
     5  O   -0.520146
     6  C    0.295639
     7  O   -0.230084
     8  N   -0.227516
     9  C    0.129266
    10  C    0.561238
    11  O   -0.476328
    12  N   -0.220653
    13  C    0.120793
    14  C    0.564239
    15  O   -0.472970
    16  C   -0.023299
    17  S   -0.006994
    18  N   -0.216397
    19  C    0.114553
    20  C    0.125141
    21  C    0.547560
    22  O   -0.444440
    23  N   -0.201444
    24  C    0.143519
    25  C    0.548879
    26  O   -0.412564
    27  O   -0.162913
    49  Se  -0.021089
    50  Cl  -0.376768
    51  C    0.065957
    52  C   -0.031951
    53  C   -0.028213
    54  C    0.076014
    55  C    0.029943
    66  S    0.292404
 Electronic spatial extent (au):  <R**2>=          26322.5675
 Charge=              0.0000 electrons
 Dipole moment (field-independent basis, Debye):
    X=             -1.2612    Y=              9.2686    Z=              8.5011  Tot=             12.6399
 Quadrupole moment (field-independent basis, Debye-Ang):
   XX=           -268.3676   YY=           -251.1305   ZZ=           -271.6798
   XY=            -32.9967   XZ=             14.2170   YZ=             -5.3608
 Traceless Quadrupole moment (field-independent basis, Debye-Ang):
   XX=             -4.6416   YY=             12.5954   ZZ=             -7.9539
   XY=            -32.9967   XZ=             14.2170   YZ=             -5.3608
 Octapole moment (field-independent basis, Debye-Ang**2):
  XXX=           -452.2992  YYY=           -106.8741  ZZZ=             40.4491  XYY=           -128.0015
  XXY=            163.8190  XXZ=            173.2403  XZZ=           -127.9842  YZZ=             43.7733
  YYZ=             48.0729  XYZ=             89.0538
 Hexadecapole moment (field-independent basis, Debye-Ang**3):
 XXXX=         -23113.6552 YYYY=          -7871.9246 ZZZZ=          -2944.0266 XXXY=           -532.1112
 XXXZ=            432.0163 YYYX=           -365.7580 YYYZ=           -108.1822 ZZZX=             -7.9697
 ZZZY=            -58.4281 XXYY=          -5163.9393 XXZZ=          -4524.8647 YYZZ=          -1873.4166
 XXYZ=             36.7693 YYXZ=            122.6067 ZZXY=             77.9728
 N-N= 5.939178074319D+03 E-N=-2.440719589743D+04  KE= 5.199968260129D+03
   1 Symmetry operations used in ECPInt.
 ECPInt:  NShTT=   24976 NPrTT=  152314 LenC2=   18609 LenP2D=   58838.
 LDataN:  DoStor=T MaxTD1= 8 Len=  415
 Calling FoFJK, ICntrl=      2127 FMM=T ISym2X=0 I1Cent= 0 IOpClX= 0 NMat=1 NMatS=1 NMatT=0.
 Defaulting to unpruned grid for atomic number  79.
 Defaulting to unpruned grid for atomic number  79.
 Defaulting to unpruned grid for atomic number  79.
 Defaulting to unpruned grid for atomic number  79.
 Defaulting to unpruned grid for atomic number  79.
 Defaulting to unpruned grid for atomic number  79.
 Defaulting to unpruned grid for atomic number  79.
 Defaulting to unpruned grid for atomic number  79.
 Defaulting to unpruned grid for atomic number  79.
 Defaulting to unpruned grid for atomic number  79.
 Defaulting to unpruned grid for atomic number  79.
 Defaulting to unpruned grid for atomic number  79.
 Defaulting to unpruned grid for atomic number  79.
 Defaulting to unpruned grid for atomic number  79.
 Defaulting to unpruned grid for atomic number  79.
 ***** Axes restored to original set *****
 -------------------------------------------------------------------
 Center     Atomic                   Forces (Hartrees/Bohr)
 Number     Number              X              Y              Z
 -------------------------------------------------------------------
      1       79          -0.001059071   -0.006941167   -0.003623796
      2        7           0.000042095   -0.000163979    0.000049726
      3        6          -0.000076578    0.000054223    0.000228119
      4        6          -0.000306125   -0.000368216   -0.000161439
      5        8           0.000349679    0.000607841   -0.000451060
      6        6           0.000349955   -0.000014261    0.000192903
      7        8          -0.000817486    0.000190690    0.000624243
      8        7           0.000051335    0.000000794   -0.000053499
      9        6           0.000079583   -0.000136092   -0.000046647
     10        6          -0.000310552    0.000457884    0.000330832
     11        8           0.000909962   -0.000472797   -0.001022156
     12        7           0.000099263   -0.000424701   -0.000105946
     13        6          -0.000018069    0.000037856    0.000036190
     14        6           0.000052611    0.000005020    0.000005342
     15        8          -0.000021172    0.000024498    0.000068635
     16        6           0.000007093   -0.000110390   -0.000005371
     17       16           0.001614272   -0.000692860    0.001570773
     18        7          -0.000013802    0.000020869   -0.000014673
     19        6          -0.000009546    0.000003022   -0.000065368
     20        6          -0.000028286   -0.000106168    0.000046804
     21        6           0.000100687    0.000025723    0.000076234
     22        8          -0.000073959   -0.000003706   -0.000101139
     23        7           0.000001556    0.000010398   -0.000000550
     24        6          -0.000000894    0.000064407    0.000042927
     25        6           0.000158057    0.000225036    0.000574494
     26        8           0.000013717    0.000014166   -0.000260265
     27        8          -0.000509053   -0.000511118   -0.000269098
     28        1          -0.000057134   -0.000095969   -0.000009712
     29        1          -0.000072268    0.000014138    0.000022405
     30        1           0.000065833    0.000245407   -0.000044024
     31        1          -0.000050267   -0.000114727    0.000017597
     32        1           0.000031848    0.000026962    0.000006888
     33        1          -0.000042072    0.000011959   -0.000064754
     34        1          -0.000026163   -0.000019483   -0.000094883
     35        1          -0.000085458    0.000020967    0.000054019
     36        1           0.000099098   -0.000034588   -0.000133652
     37        1           0.000007312    0.000020781   -0.000017855
     38        1          -0.000028748   -0.000012885    0.000003274
     39        1           0.000057074   -0.000061083    0.000005941
     40        1           0.000006940    0.000081534    0.000045468
     41        1           0.000009612    0.000010332   -0.000017089
     42        1          -0.000011577    0.000012782    0.000006689
     43        1           0.000047842    0.000014652   -0.000001432
     44        1          -0.000029897   -0.000004641    0.000001835
     45        1          -0.000003135    0.000024000   -0.000052970
     46        1          -0.000050668    0.000031155    0.000054402
     47        1          -0.000022150   -0.000018368   -0.000005360
     48        1           0.000062423    0.000205514    0.000527406
     49       34          -0.002849317    0.002894960   -0.002842662
     50       17           0.003060708    0.005835326    0.004791742
     51        6           0.000395576   -0.000186503   -0.000669780
     52        6          -0.000422301   -0.000053365    0.000466400
     53        6          -0.000126607    0.000179703    0.000424515
     54        6           0.000195835   -0.000075393   -0.000490879
     55        6          -0.000511133    0.000144583    0.000659068
     56        1           0.000433695   -0.000352966    0.000408614
     57        1          -0.000005307    0.000026760   -0.000060508
     58        1          -0.000522179    0.000641656   -0.000501176
     59        1          -0.000259725   -0.000659912    0.000257924
     60        1           0.000447183   -0.000515507    0.000565872
     61        1           0.000450193    0.000728568   -0.000372427
     62        1          -0.000074725   -0.000019856    0.000091787
     63        1          -0.000518448    0.000546941   -0.000557088
     64        1           0.000451046   -0.000684442    0.000435664
[...]
 0532,-0.00000111,-0.00000236,0.00000573,-0.00000688,-0.00000688,0.0000
 0755,-0.00000441,0.00000256,-0.00002446,0.00001490,-0.00007203,0.00001
 308,0.00000008,-0.00000909,-0.00001169,0.00001920,-0.00000775,0.000002
 80,-0.00000056,0.00000005,-0.00002437,0.00001571,-0.00002524,0.0000068
 2,-0.00000219,0.00000120,-0.00000361,0.00000388,0.00000218,-0.00000445
 ,0.00000759,0.00000508,-0.00001541,-0.00001614,0.00000153,0.00001140,-
 0.00005422,-0.00005422,-0.00017174,-0.00022154,0.00025061,0.00871701,-
 0.02263269,0.00062516,0.00150314,0.00084447,0.00009210,0.00010556,0.00
 016249,-0.00073096,0.00250143,-0.00514495,0.00104904,0.08944767,-0.258
 68410,0.01646716,-0.00109077,0.00026989,0.00040765,-0.00012986,0.00025
 619,-0.00018277,-0.00370776,-0.00142710,-0.00178042,-0.00000055,0.0008
 4580,-0.00029544,-0.00059741,0.00025987,0.00077341,-0.00013944,0.00028
 645,0.00006081,0.00010346,0.00057939,0.00042711,0.00036467,0.00116850,
 0.00089790,-0.09743434,0.28396746,-0.00008215,0.00000435,-0.00010720,-
 0.00000471,-0.00000668,0.00000726,0.00000746,0.00000296,-0.00000422,0.
 00004884,0.00001266,-0.00006218,-0.00002794,0.00002368,0.00003435,-0.0
 0000114,0.00000186,-0.00000301,0.00000832,-0.00001236,0.00004296,-0.00
 004709,-0.00001698,0.00003215,0.00001994,-0.00001361,-0.00000483,0.000
 10677,0.00005969,0.00001686,-0.00014068,-0.00005881,-0.00003176,0.0000
 2944,0.00001147,-0.00010525,-0.00003553,-0.00010014,0.00003545,0.00001
 008,-0.00003695,-0.00002746,-0.00001114,0.00005084,0.00000247,-0.00000
 017,0.00001168,0.00000146,-0.00003032,0.00026963,-0.00009828,0.0000151
 2,0.00002424,0.00003524,-0.00002305,-0.00003291,-0.00001728,-0.0000105
 7,-0.00003418,0.00000725,-0.00003280,0.00000978,-0.00005600,0.00002394
 ,-0.00001368,0.00004841,0.00002172,-0.00000667,0.00001141,-0.00000501,
 -0.00000015,-0.00000921,-0.00001422,-0.00001013,-0.00003416,0.00000699
 ,-0.00000155,0.00002051,0.00001269,0.00002575,0.00002121,-0.00000044,-
 0.00000216,0.00000177,-0.00000494,-0.00000066,0.00000112,0.00002153,0.
 00002357,-0.00005310,0.00000232,0.00000482,0.00000283,0.00000019,0.000
 00252,-0.00000255,0.00000174,0.00000231,-0.00000042,-0.00000873,0.0000
 0171,-0.00000125,-0.00000829,0.00000567,-0.00000183,0.00000284,-0.0000
 0783,0.00000040,-0.00000115,-0.00000396,-0.00000359,0.00000256,-0.0000
 0476,-0.00001600,-0.00000565,0.00002838,-0.00001550,0.00013869,-0.0001
 0411,0.00029892,0.00001256,0.00000175,-0.00001105,-0.00001154,0.000005
 15,-0.00000946,0.00000161,0.00000657,-0.00000027,0.00002529,-0.0000623
 1,-0.00001465,0.00000118,0.00000052,0.00000169,0.00000234,-0.00000299,
 -0.00000190,-0.00000283,0.00000050,-0.00000129,-0.00000188,-0.00001912
 ,-0.00000233,0.00001654,-0.00013318,-0.00008548,-0.00002983,-0.0001410
 3,0.00019840,0.00515296,-0.01176971,0.00025782,0.00012134,0.00073670,0
 .00005589,-0.00076923,0.00089684,0.00211293,-0.01359965,0.03120838,-0.
 00463582,-0.00518843,0.01629645,-0.05139571,-0.00016111,0.00018841,0.0
 0027045,0.00005020,0.00002064,-0.00010186,-0.00222892,-0.00141356,0.00
 002162,0.00053424,0.00005489,0.00026139,0.00064465,-0.00061431,-0.0002
 4814,-0.00016625,-0.00040149,0.00027541,0.00028262,-0.00054463,0.00123
 218,-0.00192468,0.00142578,-0.00624601,0.01018074,-0.01738955,0.056463
 52,-0.00001379,0.00013451,0.00002730,0.00000380,0.00000867,-0.00000561
 ,0.00000313,0.00000384,-0.00000197,-0.00003394,-0.00001737,0.00004311,
 0.00001762,-0.00000342,-0.00002538,-0.00001762,-0.00002866,0.00003040,
 0.00007941,0.00001595,-0.00003071,0.00002592,0.00001711,-0.00002777,-0
 .00001141,0.00000432,0.00001226,-0.00004801,-0.00004468,0.00000898,0.0
 0004592,0.00002879,-0.00000700,0.00004337,0.00002458,-0.00001298,0.000
 00409,-0.00001401,0.00001678,-0.00001783,0.00002615,0.00001677,0.00001
 968,-0.00001189,-0.00001053,-0.00003681,-0.00003444,-0.00001277,-0.000
 05533,0.00015592,0.00001826,0.00004322,-0.00000460,-0.00003048,-0.0000
 3687,-0.00001331,-0.00001747,-0.00002939,-0.00004029,0.00003452,-0.000
 00911,0.00000865,0.00007499,0.00001895,0.00001591,-0.00005548,0.000015
 20,-0.00000087,-0.00002527,-0.00000391,0.00000142,-0.00000211,-0.00000
 344,-0.00002018,0.00004390,0.00000066,0.00002024,-0.00003024,-0.000000
 31,-0.00000036,-0.00002026,0.00000347,0.00001018,-0.00000018,0.0000080
 4,-0.00000157,-0.00000113,-0.00003924,-0.00001236,0.00001545,-0.000001
 25,-0.00000289,-0.00000289,0.00000054,-0.00000451,0.00000483,-0.000000
 39,-0.00000104,-0.00000019,0.00000261,-0.00000028,0.00000056,0.0000015
 9,-0.00000065,-0.00000356,-0.00000191,0.00000060,0.00000218,0.00000587
 ,-0.00000153,-0.00000374,0.00001544,-0.00000325,-0.00000072,0.00000666
 ,0.00000031,-0.00000312,-0.00003198,0.00000756,-0.00000018,0.00001995,
 0.00000430,-0.00002165,-0.00001088,-0.00000493,0.00000698,0.00000207,0
 .00000156,-0.00000012,-0.00001820,-0.00000846,0.00003330,0.00000203,-0
 .00000001,0.00000017,-0.00000300,0.00000214,0.00000211,0.00000313,-0.0
 0000710,0.00000566,-0.00000129,-0.00000084,0.00000444,0.00002595,-0.00
 008595,-0.00006544,0.00009788,-0.00009760,0.00003912,-0.01824894,0.000
 97487,0.01228026,-0.00158591,-0.00422790,-0.00306011,0.00006379,0.0003
 4914,-0.00232565,0.00936525,-0.00032299,-0.00700322,-0.22315787,0.0066
 2557,0.12551775,0.00041219,0.00010068,-0.00007360,-0.00109342,0.000002
 38,0.00104503,0.00095795,-0.00007267,0.00012945,0.00029550,0.00072370,
 -0.00016199,0.00003824,-0.00008101,-0.00012398,0.00045399,-0.00002833,
 -0.00057915,0.00079143,-0.00003595,0.00053318,0.00042576,-0.00023486,0
 .00057133,-0.01031277,0.00079864,0.00694847,0.24131566,-0.00002405,0.0
 0011411,0.00002007,-0.00000451,-0.00001524,0.00000144,-0.00000152,-0.0
 0000255,0.00000623,0.00001090,0.00003156,0.00000061,-0.00000675,-0.000
 02932,-0.00000516,0.00002425,0.00003952,-0.00002223,-0.00004154,-0.000
 09349,0.00003187,-0.00001553,-0.00001677,-0.00000560,0.00000187,0.0000
 0197,0.00001207,0.00004444,0.00008916,0.00000305,-0.00000600,-0.000082
 01,0.00000499,-0.00001321,-0.00005152,-0.00005567,-0.00000519,-0.00001
 309,0.00001545,0.00002288,0.00001540,0.00008511,-0.00001320,0.00001681
 ,-0.00004157,-0.00001359,-0.00002207,-0.00000645,-0.00001850,0.0000872
 8,-0.00001137,0.00002365,-0.00001674,-0.00006568,-0.00003084,-0.000018
 55,-0.00001621,-0.00000938,-0.00002141,0.00003030,0.00006846,-0.000026
 31,0.00007213,-0.00002303,0.00004626,-0.00006221,-0.00003351,0.0000244
 8,-0.00001727,0.00001040,-0.00000673,0.00001173,0.00002799,0.00000112,
 0.00005220,-0.00002247,0.00001439,-0.00002866,-0.00002964,-0.00002684,
 -0.00002775,-0.00001713,-0.00002224,0.00000118,0.00000279,-0.00000081,
 0.00000014,-0.00000384,0.00007459,-0.00003258,0.00000009,0.00000051,-0
 .00000307,0.00000174,0.00000479,-0.00000247,-0.00000079,0.00000432,-0.
 00000024,-0.00000280,-0.00000085,-0.00000145,0.00000091,0.00000130,0.0
 0000054,0.00000516,0.00000401,0.00000917,0.00000122,-0.00000048,-0.000
 00381,0.00000574,-0.00000044,0.00000123,0.00000038,0.00000337,-0.00000
 583,-0.00000750,0.00000687,0.00007400,0.00000961,0.00000512,-0.0000150
 7,-0.00001220,-0.00001545,0.00000584,0.00000165,0.00000399,-0.00000009
 ,-0.00000244,-0.00003198,0.00006550,-0.00000312,0.00000177,-0.00000090
 ,0.00000035,-0.00000119,-0.00000006,0.00000602,-0.00001264,-0.00000038
 ,0.00001405,0.00002107,0.00000167,0.00000837,-0.00004926,-0.00002327,0
 .00010178,-0.00002373,-0.00001777,-0.02062972,-0.00016001,0.01394919,-
 0.00228992,-0.00321566,-0.00256535,0.00071878,0.00017849,0.00055473,-0
 .00493423,-0.00055193,0.00452760,0.00742731,-0.05055504,-0.00421793,-0
 .00034476,0.00009766,0.00007019,-0.00113078,0.00016454,0.00069452,0.00
 051671,0.00063634,0.00065445,0.00077728,0.00092234,0.00006568,-0.00030
 779,0.00021762,0.00035048,-0.00019169,0.00032869,0.00004025,0.00030080
 ,0.00017451,-0.00051331,-0.00048576,0.00017292,-0.00016761,0.02509649,
 -0.00044369,-0.01842571,-0.00475449,0.05195518,0.00004682,-0.00014791,
 -0.00007801,0.00003637,0.00000613,0.00002775,0.00001718,0.00000332,-0.
 00001758,-0.00000577,0.00007221,-0.00003864,0.00000944,-0.00004649,0.0
 0001695,-0.00021447,-0.00006962,0.00000921,0.00035443,-0.00000067,0.00
 009353,0.00000617,-0.00002736,0.00004133,0.00000869,-0.00002554,-0.000
 03655,0.00006167,0.00031046,-0.00015884,0.00002710,-0.00016979,0.00026
 964,-0.00014419,-0.00013405,0.00009745,-0.00001947,0.00006637,-0.00006
 083,0.00000136,-0.00002034,-0.00004389,-0.00000688,-0.00001911,0.00002
 783,0.00008035,0.00005362,0.00000813,-0.00002008,-0.00005848,0.0000394
 9,-0.00005949,-0.00000385,0.00004682,0.00004886,0.00003303,0.00003313,
 0.00002141,0.00001629,-0.00003428,0.00002060,-0.00000291,-0.00004560,-
 0.00002652,-0.00001914,0.00002317,-0.00002762,-0.00000657,0.00002002,0
 .00000622,0.00000210,0.00000711,0.00001869,0.00005065,-0.00002704,0.00
 000006,-0.00004095,0.00001669,-0.00001152,-0.00004115,0.00000658,0.000
 01651,0.00001446,0.00000701,0.00002340,-0.00000030,-0.00000316,-0.0001
 7332,0.00001233,-0.00020468,-0.00000191,0.00000174,-0.00000117,-0.0000
 0624,0.00000183,-0.00000240,0.00001095,-0.00000840,0.00000326,-0.00000
 419,-0.00000085,-0.00000776,0.00000591,-0.00000663,0.00001200,-0.00000
 675,0.00001032,-0.00000642,-0.00000583,-0.00000006,0.00000364,-0.00004
 066,-0.00000169,-0.00000957,-0.00000872,-0.00000656,0.00001046,0.00011
 260,-0.00001798,-0.00006979,-0.00001976,-0.00000615,0.00001629,0.00000
 141,0.00000803,-0.00000267,-0.00000066,-0.00000490,-0.00000081,0.00004
 005,0.00004199,-0.00005975,-0.00000279,-0.00000199,-0.00000091,0.00000
 061,0.00000028,-0.00000255,-0.00000100,0.00001387,-0.00000062,0.000000
 88,0.00004152,-0.00000517,-0.00000721,0.00000761,-0.00000344,0.0000125
 2,0.00002307,0.00009632,-0.01051617,0.00071668,0.00748820,-0.00204897,
 -0.00202459,-0.00048245,-0.00406990,0.00174315,-0.00579405,0.02630925,
 -0.00171744,-0.01999342,0.12463025,-0.00357781,-0.13752851,0.00015291,
 0.00001763,-0.00006087,-0.00069586,-0.00020241,0.00047799,0.00048620,0
 .00040355,0.00028488,0.00007489,0.00056548,0.00073676,-0.00014925,-0.0
 0001370,0.00025664,0.00173027,0.00008414,-0.00123687,0.00021942,-0.000
 67666,0.00113288,0.00003904,0.00036791,0.00111160,-0.00265033,-0.00057
 493,0.00178797,-0.13320248,0.00530671,0.15176790,-0.01852397,0.0062433
 7,0.00160903,-0.00001725,-0.00000707,-0.00000294,0.00000318,-0.0000006
 2,-0.00000032,0.00003780,-0.00001871,-0.00003209,-0.00002434,0.0000382
 2,0.00001989,0.00007447,0.00002658,0.00000065,-0.00009883,-0.00000288,
 -0.00000366,-0.00003390,0.00000023,0.00001070,0.00000728,0.00002551,-0
 .00000977,-0.00001298,-0.00032191,0.00016479,-0.00022364,0.00021216,-0
 .00024463,0.00008857,0.00014873,0.00002063,0.00010871,-0.00019317,0.00
 002266,-0.00004821,-0.00004639,-0.00012296,0.00002376,0.00004249,0.000
 05479,0.00047148,0.00099819,-0.00095585,-0.00304161,0.00157155,-0.0000
 0095,0.00007065,0.00005667,0.00003692,-0.00007968,-0.00008101,-0.00010
 494,-0.00019343,-0.00057027,0.00019738,-0.00000761,0.00004039,0.000077
 83,0.00003604,0.00000191,-0.00004246,0.00003928,-0.00001527,-0.0000369
 6,-0.00001354,0.00000076,-0.00001346,-0.00002669,-0.00003696,-0.000005
 72,0.00000866,0.00002107,0.00000067,0.00001975,0.00003938,0.00001073,-
 0.00000479,-0.00000603,-0.00000301,-0.00001165,-0.00000026,0.00000219,
 0.00009328,-0.00001055,0.00001871,0.00000324,0.00000352,0.00000387,0.0
 0000206,0.00000144,-0.00000098,-0.00000232,0.00000509,-0.00000157,0.00
 000156,0.00000270,0.00000553,-0.00001505,0.00000890,-0.00000870,0.0000
 0059,-0.00001116,0.00000076,-0.00000500,-0.00015281,-0.00015642,-0.000
 32665,-0.00007723,-0.00021369,0.00000054,0.00001237,0.00001901,-0.0000
 7753,-0.00004169,0.00001888,0.00016751,-0.00010989,-0.00012412,-0.0000
 3204,-0.00009200,0.00008261,-0.00000770,0.00001206,-0.00000774,-0.0000
 2372,-0.00003265,0.00003161,0.00000451,0.00000064,0.00000112,-0.000002
 07,-0.00000016,-0.00000080,0.00000580,-0.00000846,0.00000225,-0.000004
 19,-0.00003311,0.00000094,0.00150952,0.00245553,-0.00196985,0.00135024
 ,0.00221971,0.00081635,0.00733852,-0.00303313,0.01918825,-0.04314542,-
 0.00281756,-0.01266168,-0.07746943,-0.03212425,0.00629485,-0.02739716,
 -0.02346786,-0.00559671,0.00112185,-0.00003521,-0.00194019,-0.00021540
 ,-0.00033652,-0.01358080,-0.00190956,0.00467439,-0.01704141,0.00098871
 ,-0.00036501,-0.00046229,-0.00348176,-0.00028771,0.00261927,0.00198537
 ,-0.00110691,-0.00100585,-0.00777097,-0.00797481,-0.00332003,-0.003239
 55,0.00091407,0.00541884,0.00121117,0.00001430,-0.00083624,-0.00011861
 ,-0.00027593,0.00012413,0.00018884,0.00019936,-0.00048448,0.17064335,0
 .01791524,-0.02878710,0.00596535,0.00000386,0.00002607,-0.00001685,-0.
 00001291,-0.00000906,0.00000016,-0.00005939,-0.00006096,0.00008450,0.0
 0003657,0.00002391,-0.00004000,0.00003034,-0.00001088,0.00001820,-0.00
 004317,0.00003070,-0.00005282,0.00005028,0.00005153,-0.00005749,-0.000
 02581,0.00003915,0.00003336,-0.00021058,-0.00059966,0.00018369,-0.0001
 0028,0.00038227,-0.00024472,0.00033136,0.00027098,-0.00023006,-0.00003
 062,-0.00007583,0.00036292,0.00005029,0.00027142,0.00016242,-0.0000167
 6,-0.00011226,-0.00009297,-0.00037906,-0.00255427,0.00043134,0.0025629
 7,0.00227089,0.00131698,0.00006941,-0.00001901,-0.00002800,-0.00017897
 ,-0.00022040,-0.00026248,0.00075096,-0.00163620,0.00013089,-0.00005913
 ,0.00004940,0.00013945,0.00005043,0.00000951,-0.00003479,0.00007277,-0
 .00001857,-0.00005831,-0.00002560,0.00000769,-0.00001897,-0.00003516,-
 0.00005315,0.00003413,0.00001959,0.00003499,-0.00002665,0.00003341,0.0
 0003339,-0.00000917,-0.00000062,0.00000928,-0.00000656,-0.00000242,-0.
 00000046,-0.00000007,0.00003560,-0.00003446,0.00007288,-0.00000033,-0.
 00000486,0.00000034,-0.00000181,-0.00000992,0.00000721,-0.00000401,-0.
 00000738,0.00000072,0.00001691,0.00000389,-0.00000088,-0.00001769,-0.0
 0000024,-0.00002618,-0.00001311,-0.00000589,0.00000405,-0.00019694,0.0
 0023153,-0.00004132,0.00085126,0.00013040,0.00037296,0.00007592,0.0000
 3754,-0.00008409,-0.00013618,-0.00003085,0.00022688,0.00040722,0.00009
 471,-0.00039496,0.00001786,0.00009157,0.00008099,0.00000437,-0.0000122
 5,0.00000569,0.00004470,-0.00002922,0.00005906,0.00000906,-0.00000144,
 0.00000185,-0.00000553,0.00000535,0.00000550,0.00000479,-0.00000693,0.
 00000858,-0.00001554,-0.00002680,0.00000654,-0.00120665,0.00058316,-0.
 00279641,-0.00095681,-0.00741458,-0.00727514,0.00077893,0.00088515,0.0
 0464304,-0.00475158,-0.05274582,0.00674496,-0.03376520,-0.07440556,0.0
 1070869,-0.01048751,-0.00623298,-0.00097911,-0.00019011,0.00022035,-0.
 00056066,0.00179077,-0.00065143,0.02604217,-0.00168439,0.00543025,-0.0
 1896448,-0.00025700,0.00024296,-0.00124399,-0.00078482,0.00071813,-0.0
 0014247,-0.02656538,-0.01771604,-0.00751629,0.00159128,0.00149579,-0.0
 0158975,-0.00025494,0.00158663,0.00153684,0.00098623,0.00132936,0.0001
 2031,0.00002219,-0.00013110,-0.00003427,0.00015756,0.00006599,-0.00031
 947,0.05370390,0.17696160,0.00427886,-0.00054342,-0.00581778,0.0000049
 7,0.00000033,0.00000443,0.00000132,-0.00000040,-0.00000173,-0.00000389
 ,0.00001214,-0.00000175,0.00000257,-0.00001331,0.00000071,-0.00002835,
 -0.00000858,-0.00000485,0.00003755,-0.00000011,0.00001142,0.00000565,-
 0.00000394,0.00000572,0.00000287,-0.00000270,-0.00000638,0.00001600,0.
 00002721,-0.00002311,0.00004681,-0.00003195,0.00009460,0.00007563,-0.0
 0002352,0.00004631,0.00000593,0.00001099,-0.00007245,-0.00002059,0.000
 04886,-0.00005977,-0.00001252,-0.00006431,0.00001753,0.00024566,-0.000
 27296,-0.00073785,-0.00311753,0.00518975,0.00043480,0.00010210,0.00000
 652,0.00000709,-0.00005691,0.00028806,0.00024031,-0.00100744,-0.000426
 26,-0.00016055,-0.00004214,-0.00005397,-0.00010203,-0.00000180,0.00002
 783,0.00003525,-0.00003409,0.00001147,0.00003896,0.00001049,-0.0000017
 7,0.00001182,0.00001346,0.00002428,-0.00000814,-0.00000588,-0.00001569
 ,0.00000767,-0.00001032,-0.00001842,-0.00000042,0.00000225,0.00000107,
 0.00000082,0.00000270,0.00000111,-0.00000045,-0.00003090,0.00000269,-0
 .00001486,-0.00000082,-0.00000047,0.00000028,-0.00000078,0.00000116,-0
 .00000124,0.00000164,-0.00000162,0.00000044,0.00000356,-0.00000085,-0.
 00000052,0.00000551,-0.00000226,0.00000516,-0.00000077,0.00000421,-0.0
 0000163,-0.00022424,-0.00003257,-0.00021376,-0.00007594,-0.00014827,-0
 .00012378,-0.00000476,-0.00001065,0.00003345,-0.00005909,-0.00005707,0
 .00000066,0.00017252,0.00011081,-0.00023117,0.00003346,0.00001239,-0.0
 0006075,0.00002052,-0.00001091,-0.00001216,-0.00002456,0.00000181,0.00
 001565,-0.00000370,-0.00000040,-0.00000200,0.00000234,0.00000052,-0.00
 000048,-0.00000567,0.00000902,-0.00000062,0.00000267,0.00001370,-0.000
 00198,-0.00265747,0.00122927,-0.00104711,-0.00210085,-0.00140280,-0.00
 275512,-0.00206042,0.00576059,-0.03356453,0.01219350,0.02146708,-0.097
 55313,-0.01705444,-0.00655668,-0.04893188,0.00926488,0.00975900,0.0069
 4244,-0.00215898,-0.00092686,0.00031469,-0.00342528,0.00084370,-0.0158
 9727,-0.00387377,0.00151282,-0.01379046,-0.00089281,-0.00032141,0.0016
 3853,0.00630177,-0.00005760,-0.00070749,-0.00039131,0.00031732,0.00006
 774,-0.01902400,-0.01932510,-0.00312451,0.00249542,-0.00009632,-0.0015
 4360,-0.00052292,0.00027632,0.00016262,-0.00001667,0.00018205,-0.00015
 227,-0.00051839,-0.00035760,0.00003967,0.02411741,-0.01636332,0.216550
 81\\0.00000194,-0.00000728,-0.00000249,-0.00000373,0.00000815,0.000012
 61,-0.00000331,0.00000594,0.00001015,-0.00000195,0.00000541,0.00000661
 ,-0.00000022,0.00000683,0.00000708,-0.00000211,0.00000745,0.00000951,-
 0.00000106,0.00000564,0.00000664,-0.00000195,0.00000262,0.00000550,-0.
 00000377,-0.00000030,0.00000403,-0.00000333,-0.00000087,0.00000522,-0.
 00000552,-0.00000221,0.00000658,-0.00000458,-0.00000442,-0.00000047,-0
 .00000359,-0.00000400,-0.00000108,0.00000225,-0.00000294,-0.00000399,0
 .00000234,-0.00000306,-0.00000492,-0.00000399,-0.00001065,-0.00000170,
 0.00000004,-0.00000519,-0.00000719,0.00000195,-0.00000270,-0.00000191,
 0.00000389,0.00000076,-0.00000951,0.00000505,-0.00000471,-0.00000601,0
 .00000854,0.00000358,-0.00000732,0.00000801,0.00000474,-0.00000812,0.0
 0000593,0.00000174,-0.00000496,0.00000708,0.00000547,-0.00000544,0.000
 00384,0.00000695,-0.00000221,0.00000522,0.00000887,-0.00000012,0.00000
 322,0.00000595,0.00000148,-0.00000320,0.00000784,0.00001143,-0.0000005
 1,0.00000955,0.00000916,-0.00000302,0.00000335,0.00000713,-0.00000534,
 0.00000363,0.00001073,-0.00000229,0.00000984,0.00001225,-0.00000507,0.
 00000748,0.00001342,-0.00000600,-0.00000061,0.00000793,-0.00000465,-0.
 00000266,0.00000478,-0.00000086,0.00000225,0.00000364,-0.00000546,-0.0
 0001028,-0.00000101,-0.00000158,-0.00000897,-0.00000542,-0.00000381,-0
 .00000523,0.00000061,-0.00000312,-0.00000355,0.00000020,0.00000640,-0.
 00000293,-0.00001183,0.00000543,-0.00000078,-0.00000900,0.00000541,-0.
 00000121,-0.00000855,0.00000191,-0.00000053,-0.00000289,0.00000734,0.0
 0000548,-0.00000530,0.00000457,0.00000219,-0.00000482,0.00000922,0.000
 00741,-0.00000592,0.00000284,0.00000606,0.00000194,0.00000202,-0.00000
 534,-0.00001140,0.00000424,-0.00000355,-0.00001108,0.00000111,-0.00000
 180,-0.00000174,-0.00000019,-0.00000419,-0.00000374,-0.00000388,-0.000
 00641,-0.00000042,-0.00000233,-0.00000409,0.00000106,-0.00000102,-0.00
 000052,0.00000141,-0.00000137,-0.00000502,-0.00000286,0.00000177,-0.00
 000487,-0.00000575,0.00000147,0.00000071,-0.00000430,0.00000172,0.0000
 0100,-0.00000183,-0.00000515,-0.00000686,0.00000138,-0.00000505,-0.000
 00848,0.00000002,-0.00000367,-0.00000141,0.00000351,-0.00000152,-0.000
 00170,0.00000014,-0.00000273,-0.00000107,0.00000271,-0.00000039,0.0000
 0203,0.00000228,-0.00000344,-0.00000856,-0.00000585\\\@


 THE MOST SERIOUS THREAT TO THE SURVIVAL OF MANKIND IS NOT NOW
 IGNORANCE IN THE TRADITIONAL SENSE,
 BUT A MORALLY NEUTRAL, AN INSENSITIVE OR INHIBITED HUMAN INTELLIGENCE.

                     -- MARGO JEFFERSON IN NEWSWEEK, SEPTEMBER 2, 1974
 Job cpu time:       0 days 10 hours 33 minutes 40.4 seconds.
 File lengths (MBytes):  RWF=   2997 Int=      0 D2E=      0 Chk=     30 Scr=      1
 Normal termination of Gaussian 09 at Wed May 17 13:55:04 2023.
