 Entering Gaussian System, Link 0=g09
 Input=au-1to3-ts-2-af61-cterm-se-wat-ts.com
 Output=au-1to3-ts-2-af61-cterm-se-wat-ts.log
 Initial command:
 /home/scr/programs/g09/l1.exe "/home/scr/guest2/Gau-6622.inp" -scrdir="/home/scr/guest2/"
 Entering Link 1 = /home/scr/programs/g09/l1.exe PID=      6623.
  
 Copyright (c) 1988,1990,1992,1993,1995,1998,2003,2009,2013,
            Gaussian, Inc.  All Rights Reserved.
  
 This is part of the Gaussian(R) 09 program.  It is based on
 the Gaussian(R) 03 system (copyright 2003, Gaussian, Inc.),
 the Gaussian(R) 98 system (copyright 1998, Gaussian, Inc.),
 the Gaussian(R) 94 system (copyright 1995, Gaussian, Inc.),
 the Gaussian 92(TM) system (copyright 1992, Gaussian, Inc.),
 the Gaussian 90(TM) system (copyright 1990, Gaussian, Inc.),
 the Gaussian 88(TM) system (copyright 1988, Gaussian, Inc.),
 the Gaussian 86(TM) system (copyright 1986, Carnegie Mellon
 University), and the Gaussian 82(TM) system (copyright 1983,
 Carnegie Mellon University). Gaussian is a federally registered
 trademark of Gaussian, Inc.
  
 This software contains proprietary and confidential information,
 including trade secrets, belonging to Gaussian, Inc.
  
 This software is provided under written license and may be
 used, copied, transmitted, or stored only in accord with that
 written license.
  
 The following legend is applicable only to US Government
 contracts under FAR:
  
                    RESTRICTED RIGHTS LEGEND
  
 Use, reproduction and disclosure by the US Government is
 subject to restrictions as set forth in subparagraphs (a)
 and (c) of the Commercial Computer Software - Restricted
 Rights clause in FAR 52.227-19.
  
 Gaussian, Inc.
 340 Quinnipiac St., Bldg. 40, Wallingford CT 06492
  
  
 ---------------------------------------------------------------
 Warning -- This program may not be used in any manner that
 competes with the business of Gaussian, Inc. or will provide
 assistance to any competitor of Gaussian, Inc.  The licensee
 of this program is prohibited from giving any competitor of
 Gaussian, Inc. access to this program.  By using this program,
 the user acknowledges that Gaussian, Inc. is engaged in the
 business of creating and licensing software in the field of
 computational chemistry and represents and warrants to the
 licensee that it is not a competitor of Gaussian, Inc. and that
 it will not use this program in any manner prohibited above.
 ---------------------------------------------------------------
  

 Cite this work as:
 Gaussian 09, Revision D.01,
 M. J. Frisch, G. W. Trucks, H. B. Schlegel, G. E. Scuseria, 
 M. A. Robb, J. R. Cheeseman, G. Scalmani, V. Barone, B. Mennucci, 
 G. A. Petersson, H. Nakatsuji, M. Caricato, X. Li, H. P. Hratchian, 
 A. F. Izmaylov, J. Bloino, G. Zheng, J. L. Sonnenberg, M. Hada, 
 M. Ehara, K. Toyota, R. Fukuda, J. Hasegawa, M. Ishida, T. Nakajima, 
 Y. Honda, O. Kitao, H. Nakai, T. Vreven, J. A. Montgomery, Jr., 
 J. E. Peralta, F. Ogliaro, M. Bearpark, J. J. Heyd, E. Brothers, 
 K. N. Kudin, V. N. Staroverov, T. Keith, R. Kobayashi, J. Normand, 
 K. Raghavachari, A. Rendell, J. C. Burant, S. S. Iyengar, J. Tomasi, 
 M. Cossi, N. Rega, J. M. Millam, M. Klene, J. E. Knox, J. B. Cross, 
 V. Bakken, C. Adamo, J. Jaramillo, R. Gomperts, R. E. Stratmann, 
 O. Yazyev, A. J. Austin, R. Cammi, C. Pomelli, J. W. Ochterski, 
 R. L. Martin, K. Morokuma, V. G. Zakrzewski, G. A. Voth, 
 P. Salvador, J. J. Dannenberg, S. Dapprich, A. D. Daniels, 
 O. Farkas, J. B. Foresman, J. V. Ortiz, J. Cioslowski, 
 and D. J. Fox, Gaussian, Inc., Wallingford CT, 2013.
 
 ******************************************
 Gaussian 09:  EM64L-G09RevD.01 24-Apr-2013
                17-May-2023 
 ******************************************
 %mem=50000MB
 %nprocshared=15
 Will use up to   15 processors via shared memory.
 %chk=au-1to3-ts-2-af61-cterm-se-wat-ts.chk
 ----------------------------------------------------------------
 # opt=(ts,readfc,noeigentest) freq=noraman b3lyp/gen pseudo=read
 ----------------------------------------------------------------
 1/5=1,10=3,11=1,14=-1,18=20,26=3,38=1/1,3;
 2/9=110,12=2,17=6,18=5,40=1/2;
 3/5=7,11=2,16=1,17=8,25=1,30=1,71=1,74=-5/1,2,3;
 4//1;
 5/5=2,38=5/2;
 6/7=2,8=2,9=2,10=2,28=1/1;
 7//1,2,3,16;
 1/5=1,11=1,14=-1,18=20,26=3/3(2);
 2/9=110/2;
 99//99;
 2/9=110/2;
 3/5=7,6=1,11=2,16=1,17=8,25=1,30=1,71=1,74=-5,82=7/1,2,3;
 4/5=5,16=3,69=1/1;
 5/5=2,38=5/2;
 7//1,2,3,16;
 1/5=1,11=1,14=-1,18=20,26=3/3(-5);
 2/9=110/2;
 6/7=2,8=2,9=2,10=2,19=2,28=1/1;
 99/9=1/99;
 -------------------
 Title Card Required
 -------------------
 Symbolic Z-matrix:
 Charge =  0 Multiplicity = 1
 Au                    2.76179  -0.64494  -0.25464 
 N                    -7.79019   3.55972   0.34322 
 C                    -6.3979    3.11529   0.34183 
 C                    -6.25951   1.62633   0.0008 
 O                    -7.01108   0.81879   0.56768 
 C                    -5.8093    3.33917   1.75616 
 O                    -4.51522   2.80145   1.91366 
 N                    -5.34407   1.18898  -0.91276 
 C                    -4.4426    1.96912  -1.74735 
 C                    -3.08588   2.26685  -1.08149 
 O                    -2.94515   3.27187  -0.3872 
 N                    -2.0456    1.40061  -1.26971 
 C                    -1.94374   0.24643  -2.14981 
 C                    -2.18134  -1.12909  -1.49989 
 O                    -2.57413  -2.05797  -2.19719 
 C                    -0.57341   0.22503  -2.87051 
 S                     0.94181   0.46654  -1.82393 
 N                    -1.85665  -1.26024  -0.18044 
 C                    -1.41631  -2.56123   0.32699 
 C                     0.11333  -2.61843   0.42419 
 C                    -2.01663  -2.83051   1.72707 
 O                    -1.34031  -2.66128   2.73302 
 N                    -3.30001  -3.29996   1.78371 
 C                    -4.33018  -3.17508   0.76536 
 C                    -5.332    -2.09186   1.17004 
 O                    -5.50817  -1.75747   2.32013 
 O                    -5.99315  -1.59306   0.11432 
 H                    -5.85636   4.41749   1.96666 
 H                    -6.44867   2.82386   2.48015 
 H                    -3.91983   3.23813   1.27799 
 H                    -5.83827   3.74013  -0.36 
 H                    -8.33996   2.87387   0.86097 
 H                    -8.16285   3.56485  -0.60494 
 H                    -4.88405   2.94036  -1.97244 
 H                    -4.32945   1.43959  -2.69692 
 H                    -5.29235   0.17675  -0.99413 
 H                    -0.51932   1.08682  -3.54746 
 H                    -0.48631  -0.6902   -3.45833 
 H                    -2.69387   0.31676  -2.94089 
 H                    -1.18102   1.70567  -0.82711 
 H                     0.46568  -3.62823   0.65506 
 H                     0.48822  -1.96969   1.21427 
 H                    -1.77721  -3.29792  -0.39315 
 H                    -1.50948  -0.44149   0.30528 
 H                    -4.8796   -4.1219    0.66963 
 H                    -3.9064   -2.95633  -0.21467 
 H                    -3.66255  -3.297     2.73373 
 H                    -6.56252  -0.82148   0.4196 
 Se                    1.03403  -2.15301  -1.28824 
 Cl                    3.7672   -2.22027   1.49617 
 C                     4.72266   3.56099   1.28838 
 C                     4.0059    1.33342   1.73977 
 C                     3.94603   2.23033  -0.53414 
 H                     5.4313    4.34376   1.57668 
 H                     4.16346   0.41902   2.31536 
 H                     2.92045   2.57597  -0.37211 
 H                     4.07061   1.98137  -1.59239 
 H                     3.70682   3.93083   1.463 
 H                     2.98242   1.68651   1.89747 
 N                     4.89254   3.27217  -0.15086 
 N                     4.14974   0.97216   0.27117 
 N                     4.95492   2.36925   2.12291 
 C                     6.26369   2.76148  -0.3559 
 H                     6.40647   2.53217  -1.41731 
 H                     6.97679   3.54127  -0.07048 
 C                     5.58104   0.51387   0.05686 
 H                     5.72393  -0.39201   0.64966 
 H                     5.69909   0.27326  -1.00401 
 C                     6.3222    1.87683   1.86712 
 H                     7.03995   2.64838   2.16358 
 H                     6.50009   0.98126   2.46978 
 N                     6.52882   1.55142   0.44195 
 

 GradGradGradGradGradGradGradGradGradGradGradGradGradGradGradGradGradGrad
 Berny optimization.
 Initialization pass.
 No redundant coordinates on chk file, so ReadFC converted to ReadCartesianFC.
 Cartesian force constants read from checkpoint file:
 "au-1to3-ts-2-af61-cterm-se-wat-ts.chk"
 FormGI is forming the generalized inverse of G from B-inverse, IUseBI=4.
                           ----------------------------
                           !    Initial Parameters    !
                           ! (Angstroms and Degrees)  !
 --------------------------                            --------------------------
 ! Name  Definition              Value          Derivative Info.                !
 --------------------------------------------------------------------------------
 ! R1    R(1,17)                 2.6477         D2E/DX2 =    0.0371             !
 ! R2    R(1,49)                 2.5155         D2E/DX2 =    0.0766             !
 ! R3    R(1,50)                 2.5608         D2E/DX2 =    0.0502             !
 ! R4    R(1,61)                 2.195          D2E/DX2 =    0.0806             !
 ! R5    R(2,3)                  1.4615         D2E/DX2 =    0.3365             !
 ! R6    R(2,32)                 1.0201         D2E/DX2 =    0.4389             !
 ! R7    R(2,33)                 1.0188         D2E/DX2 =    0.4395             !
 ! R8    R(3,4)                  1.5338         D2E/DX2 =    0.2508             !
 ! R9    R(3,6)                  1.5482         D2E/DX2 =    0.2571             !
 ! R10   R(3,31)                 1.0937         D2E/DX2 =    0.3414             !
 ! R11   R(4,5)                  1.2403         D2E/DX2 =    0.7331             !
 ! R12   R(4,8)                  1.3652         D2E/DX2 =    0.474              !
 ! R13   R(6,7)                  1.4102         D2E/DX2 =    0.3728             !
 ! R14   R(6,28)                 1.0997         D2E/DX2 =    0.327              !
 ! R15   R(6,29)                 1.0948         D2E/DX2 =    0.3412             !
 ! R16   R(7,30)                 0.9743         D2E/DX2 =    0.4838             !
 ! R17   R(8,9)                  1.4553         D2E/DX2 =    0.3666             !
 ! R18   R(8,36)                 1.0168         D2E/DX2 =    0.4447             !
 ! R19   R(9,10)                 1.5404         D2E/DX2 =    0.2526             !
 ! R20   R(9,34)                 1.0903         D2E/DX2 =    0.3515             !
 ! R21   R(9,35)                 1.0931         D2E/DX2 =    0.3433             !
 ! R22   R(10,11)                1.2296         D2E/DX2 =    0.7812             !
 ! R23   R(10,12)                1.3667         D2E/DX2 =    0.4733             !
 ! R24   R(12,13)                1.455          D2E/DX2 =    0.3505             !
 ! R25   R(12,40)                1.0181         D2E/DX2 =    0.4415             !
 ! R26   R(13,14)                1.5398         D2E/DX2 =    0.2767             !
 ! R27   R(13,16)                1.5484         D2E/DX2 =    0.2432             !
 ! R28   R(13,39)                1.0925         D2E/DX2 =    0.3436             !
 ! R29   R(14,15)                1.2261         D2E/DX2 =    0.7953             !
 ! R30   R(14,18)                1.3651         D2E/DX2 =    0.4365             !
 ! R31   R(16,17)                1.8573         D2E/DX2 =    0.1556             !
 ! R32   R(16,37)                1.0972         D2E/DX2 =    0.3344             !
 ! R33   R(16,38)                1.0912         D2E/DX2 =    0.3501             !
 ! R34   R(18,19)                1.4642         D2E/DX2 =    0.3562             !
 ! R35   R(18,44)                1.0133         D2E/DX2 =    0.4599             !
 ! R36   R(19,20)                1.5338         D2E/DX2 =    0.2595             !
 ! R37   R(19,21)                1.547          D2E/DX2 =    0.2591             !
 ! R38   R(19,43)                1.0916         D2E/DX2 =    0.3476             !
 ! R39   R(20,41)                1.0941         D2E/DX2 =    0.344              !
 ! R40   R(20,42)                1.0889         D2E/DX2 =    0.3567             !
 ! R41   R(20,49)                1.9992         D2E/DX2 =    0.138              !
 ! R42   R(21,22)                1.2239         D2E/DX2 =    0.8092             !
 ! R43   R(21,23)                1.3677         D2E/DX2 =    0.4611             !
 ! R44   R(23,24)                1.4539         D2E/DX2 =    0.3501             !
 ! R45   R(23,47)                1.0168         D2E/DX2 =    0.4501             !
 ! R46   R(24,25)                1.53           D2E/DX2 =    0.2928             !
 ! R47   R(24,45)                1.0989         D2E/DX2 =    0.3301             !
 ! R48   R(24,46)                1.0899         D2E/DX2 =    0.3549             !
 ! R49   R(25,26)                1.2106         D2E/DX2 =    0.8691             !
 ! R50   R(25,27)                1.3418         D2E/DX2 =    0.4393             !
 ! R51   R(27,48)                1.0063         D2E/DX2 =    0.3508             !
 ! R52   R(51,54)                1.0945         D2E/DX2 =    0.3414             !
 ! R53   R(51,58)                1.0951         D2E/DX2 =    0.3395             !
 ! R54   R(51,60)                1.4777         D2E/DX2 =    0.2116             !
 ! R55   R(51,62)                1.4733         D2E/DX2 =    0.2163             !
 ! R56   R(52,55)                1.0919         D2E/DX2 =    0.349              !
 ! R57   R(52,59)                1.0941         D2E/DX2 =    0.3414             !
 ! R58   R(52,61)                1.5192         D2E/DX2 =    0.1826             !
 ! R59   R(52,62)                1.4561         D2E/DX2 =    0.2346             !
 ! R60   R(53,56)                1.0943         D2E/DX2 =    0.3412             !
 ! R61   R(53,57)                1.0942         D2E/DX2 =    0.3417             !
 ! R62   R(53,60)                1.4588         D2E/DX2 =    0.2319             !
 ! R63   R(53,61)                1.5077         D2E/DX2 =    0.19               !
 ! R64   R(60,63)                1.4775         D2E/DX2 =    0.2122             !
 ! R65   R(61,66)                1.5181         D2E/DX2 =    0.1833             !
 ! R66   R(62,69)                1.4756         D2E/DX2 =    0.2146             !
 ! R67   R(63,64)                1.0952         D2E/DX2 =    0.339              !
 ! R68   R(63,65)                1.0946         D2E/DX2 =    0.3413             !
 ! R69   R(63,72)                1.4735         D2E/DX2 =    0.2162             !
 ! R70   R(66,67)                1.092          D2E/DX2 =    0.3485             !
 ! R71   R(66,68)                1.0942         D2E/DX2 =    0.3415             !
 ! R72   R(66,72)                1.4571         D2E/DX2 =    0.2338             !
 ! R73   R(69,70)                1.0947         D2E/DX2 =    0.3409             !
 ! R74   R(69,71)                1.094          D2E/DX2 =    0.3425             !
 ! R75   R(69,72)                1.4764         D2E/DX2 =    0.2136             !
 ! A1    A(17,1,49)             62.3551         D2E/DX2 =   -0.0009             !
 ! A2    A(17,1,50)            158.9601         D2E/DX2 =    0.0138             !
 ! A3    A(17,1,61)            105.5074         D2E/DX2 =    0.0249             !
 ! A4    A(49,1,50)            100.474          D2E/DX2 =    0.0264             !
 ! A5    A(50,1,61)             92.3595         D2E/DX2 =    0.046              !
 ! A6    A(3,2,32)             108.0256         D2E/DX2 =    0.1556             !
 ! A7    A(3,2,33)             110.4331         D2E/DX2 =    0.1533             !
 ! A8    A(32,2,33)            106.1763         D2E/DX2 =    0.0578             !
 ! A9    A(2,3,4)              112.419          D2E/DX2 =    0.0648             !
 ! A10   A(2,3,6)              108.5019         D2E/DX2 =    0.0909             !
 ! A11   A(2,3,31)             108.3208         D2E/DX2 =    0.0282             !
 ! A12   A(4,3,6)              108.0108         D2E/DX2 =    0.0772             !
 ! A13   A(4,3,31)             111.4548         D2E/DX2 =    0.0288             !
 ! A14   A(6,3,31)             108.003          D2E/DX2 =    0.0352             !
 ! A15   A(3,4,5)              118.4093         D2E/DX2 =    0.2142             !
 ! A16   A(3,4,8)              121.3507         D2E/DX2 =    0.2833             !
 ! A17   A(5,4,8)              120.2369         D2E/DX2 =    0.301              !
 ! A18   A(3,6,7)              113.3147         D2E/DX2 =    0.192              !
 ! A19   A(3,6,28)             107.4814         D2E/DX2 =    0.076              !
 ! A20   A(3,6,29)             108.3025         D2E/DX2 =    0.0817             !
 ! A21   A(7,6,28)             113.0667         D2E/DX2 =    0.0694             !
 ! A22   A(7,6,29)             106.4154         D2E/DX2 =    0.0657             !
 ! A23   A(28,6,29)            108.0576         D2E/DX2 =    0.0274             !
 ! A24   A(6,7,30)             108.4822         D2E/DX2 =    0.2147             !
 ! A25   A(4,8,9)              128.8578         D2E/DX2 =    0.4617             !
 ! A26   A(4,8,36)             113.989          D2E/DX2 =    0.183              !
 ! A27   A(9,8,36)             117.1458         D2E/DX2 =    0.1924             !
 ! A28   A(8,9,10)             113.6602         D2E/DX2 =    0.3459             !
 ! A29   A(8,9,34)             110.1883         D2E/DX2 =    0.1193             !
 ! A30   A(8,9,35)             107.6155         D2E/DX2 =    0.1132             !
 ! A31   A(10,9,34)            105.8828         D2E/DX2 =    0.0708             !
 ! A32   A(10,9,35)            112.2086         D2E/DX2 =    0.085              !
 ! A33   A(34,9,35)            107.1022         D2E/DX2 =    0.0259             !
 ! A34   A(9,10,11)            120.1908         D2E/DX2 =    0.2695             !
 ! A35   A(9,10,12)            119.2326         D2E/DX2 =    0.5832             !
 ! A36   A(11,10,12)           120.5765         D2E/DX2 =    0.2958             !
 ! A37   A(10,12,13)           129.7429         D2E/DX2 =    0.561              !
 ! A38   A(10,12,40)           113.3659         D2E/DX2 =    0.2077             !
 ! A39   A(13,12,40)           116.1806         D2E/DX2 =    0.2106             !
 ! A40   A(12,13,14)           116.264          D2E/DX2 =    0.2768             !
 ! A41   A(12,13,16)           110.7595         D2E/DX2 =    0.253              !
 ! A42   A(12,13,39)           109.8073         D2E/DX2 =    0.0303             !
 ! A43   A(14,13,16)           108.7038         D2E/DX2 =    0.0595             !
 ! A44   A(14,13,39)           104.9042         D2E/DX2 =    0.0301             !
 ! A45   A(16,13,39)           105.755          D2E/DX2 =    0.0332             !
 ! A46   A(13,14,15)           119.0887         D2E/DX2 =    0.1636             !
 ! A47   A(13,14,18)           117.1996         D2E/DX2 =    0.1228             !
 ! A48   A(15,14,18)           123.579          D2E/DX2 =    0.1802             !
 ! A49   A(13,16,17)           117.2524         D2E/DX2 =    0.0818             !
 ! A50   A(13,16,37)           108.6595         D2E/DX2 =    0.0656             !
 ! A51   A(13,16,38)           109.4482         D2E/DX2 =    0.0677             !
 ! A52   A(17,16,37)           101.8476         D2E/DX2 =    0.0443             !
 ! A53   A(17,16,38)           110.3333         D2E/DX2 =    0.0481             !
 ! A54   A(37,16,38)           108.8124         D2E/DX2 =    0.0258             !
 ! A55   A(1,17,16)            147.1586         D2E/DX2 =    0.0331             !
 ! A56   A(14,18,19)           119.4621         D2E/DX2 =    0.1798             !
 ! A57   A(14,18,44)           117.8498         D2E/DX2 =    0.082              !
 ! A58   A(19,18,44)           116.6645         D2E/DX2 =    0.1211             !
 ! A59   A(18,19,20)           110.7945         D2E/DX2 =    0.0587             !
 ! A60   A(18,19,21)           110.5855         D2E/DX2 =    0.1619             !
 ! A61   A(18,19,43)           105.7591         D2E/DX2 =    0.0432             !
 ! A62   A(20,19,21)           108.8545         D2E/DX2 =    0.1616             !
 ! A63   A(20,19,43)           110.2648         D2E/DX2 =    0.0338             !
 ! A64   A(21,19,43)           110.5666         D2E/DX2 =    0.0286             !
 ! A65   A(19,20,41)           111.6511         D2E/DX2 =    0.0637             !
 ! A66   A(19,20,42)           111.5383         D2E/DX2 =    0.0621             !
 ! A67   A(19,20,49)           113.3489         D2E/DX2 =    0.0718             !
 ! A68   A(41,20,42)           106.612          D2E/DX2 =    0.0273             !
 ! A69   A(41,20,49)           104.3171         D2E/DX2 =    0.0447             !
 ! A70   A(42,20,49)           108.9207         D2E/DX2 =    0.0399             !
 ! A71   A(19,21,22)           120.3554         D2E/DX2 =    0.2604             !
 ! A72   A(19,21,23)           117.4749         D2E/DX2 =    0.481              !
 ! A73   A(22,21,23)           122.1357         D2E/DX2 =    0.269              !
 ! A74   A(21,23,24)           127.3273         D2E/DX2 =    0.4867             !
 ! A75   A(21,23,47)           111.8541         D2E/DX2 =    0.1288             !
 ! A76   A(24,23,47)           113.6729         D2E/DX2 =    0.181              !
 ! A77   A(23,24,25)           109.8465         D2E/DX2 =    0.3813             !
 ! A78   A(23,24,45)           109.9546         D2E/DX2 =    0.0844             !
 ! A79   A(23,24,46)           111.8108         D2E/DX2 =    0.0865             !
 ! A80   A(25,24,45)           107.7998         D2E/DX2 =    0.0786             !
 ! A81   A(25,24,46)           110.5081         D2E/DX2 =    0.0979             !
 ! A82   A(45,24,46)           106.7992         D2E/DX2 =    0.0277             !
 ! A83   A(24,25,26)           122.829          D2E/DX2 =    0.1929             !
 ! A84   A(24,25,27)           112.1924         D2E/DX2 =    0.2688             !
 ! A85   A(26,25,27)           124.9652         D2E/DX2 =    0.2198             !
 ! A86   A(25,27,48)           108.9725         D2E/DX2 =    0.2441             !
 ! A87   A(1,49,20)             95.9655         D2E/DX2 =    0.1336             !
 ! A88   A(54,51,58)           108.4847         D2E/DX2 =    0.0219             !
 ! A89   A(54,51,60)           108.7774         D2E/DX2 =    0.0452             !
 ! A90   A(54,51,62)           109.0998         D2E/DX2 =    0.0451             !
 ! A91   A(58,51,60)           109.1452         D2E/DX2 =    0.0453             !
 ! A92   A(58,51,62)           109.2138         D2E/DX2 =    0.0453             !
 ! A93   A(60,51,62)           112.0527         D2E/DX2 =    0.0388             !
 ! A94   A(55,52,59)           109.2237         D2E/DX2 =    0.0179             !
 ! A95   A(55,52,61)           107.2649         D2E/DX2 =    0.0438             !
 ! A96   A(55,52,62)           111.2821         D2E/DX2 =    0.035              !
 ! A97   A(59,52,61)           107.7371         D2E/DX2 =    0.0431             !
 ! A98   A(59,52,62)           110.0089         D2E/DX2 =    0.0352             !
 ! A99   A(61,52,62)           111.2113         D2E/DX2 =    0.0352             !
 ! A100  A(56,53,57)           108.769          D2E/DX2 =    0.0178             !
 ! A101  A(56,53,60)           110.0954         D2E/DX2 =    0.0356             !
 ! A102  A(56,53,61)           108.1272         D2E/DX2 =    0.043              !
 ! A103  A(57,53,60)           110.0415         D2E/DX2 =    0.0357             !
 ! A104  A(57,53,61)           108.139          D2E/DX2 =    0.0433             !
 ! A105  A(60,53,61)           111.5908         D2E/DX2 =    0.0356             !
 ! A106  A(51,60,53)           108.7162         D2E/DX2 =    0.0252             !
 ! A107  A(51,60,63)           108.0235         D2E/DX2 =    0.0255             !
 ! A108  A(53,60,63)           108.5913         D2E/DX2 =    0.0253             !
 ! A109  A(1,61,52)            110.2974         D2E/DX2 =    0.016              !
 ! A110  A(1,61,53)            113.6669         D2E/DX2 =    0.0158             !
 ! A111  A(1,61,66)            109.8745         D2E/DX2 =    0.0162             !
 ! A112  A(52,61,53)           107.7652         D2E/DX2 =    0.0176             !
 ! A113  A(52,61,66)           107.3091         D2E/DX2 =    0.0176             !
 ! A114  A(53,61,66)           107.693          D2E/DX2 =    0.0174             !
 ! A115  A(51,62,52)           108.8819         D2E/DX2 =    0.0255             !
 ! A116  A(51,62,69)           108.5308         D2E/DX2 =    0.0257             !
 ! A117  A(52,62,69)           108.7173         D2E/DX2 =    0.0254             !
 ! A118  A(60,63,64)           109.1377         D2E/DX2 =    0.0453             !
 ! A119  A(60,63,65)           108.7952         D2E/DX2 =    0.0454             !
 ! A120  A(60,63,72)           112.0678         D2E/DX2 =    0.0386             !
 ! A121  A(64,63,65)           108.4778         D2E/DX2 =    0.0219             !
 ! A122  A(64,63,72)           109.2292         D2E/DX2 =    0.0452             !
 ! A123  A(65,63,72)           109.0652         D2E/DX2 =    0.0453             !
 ! A124  A(61,66,67)           107.2874         D2E/DX2 =    0.0432             !
 ! A125  A(61,66,68)           107.7564         D2E/DX2 =    0.0428             !
 ! A126  A(61,66,72)           111.1619         D2E/DX2 =    0.0353             !
 ! A127  A(67,66,68)           109.256          D2E/DX2 =    0.0179             !
 ! A128  A(67,66,72)           111.2311         D2E/DX2 =    0.0347             !
 ! A129  A(68,66,72)           110.0381         D2E/DX2 =    0.0349             !
 ! A130  A(62,69,70)           108.9898         D2E/DX2 =    0.045              !
 ! A131  A(62,69,71)           109.1688         D2E/DX2 =    0.0452             !
 ! A132  A(62,69,72)           111.7506         D2E/DX2 =    0.0384             !
 ! A133  A(70,69,71)           108.7333         D2E/DX2 =    0.022              !
 ! A134  A(70,69,72)           108.9661         D2E/DX2 =    0.045              !
 ! A135  A(71,69,72)           109.182          D2E/DX2 =    0.0452             !
 ! A136  A(63,72,66)           108.9435         D2E/DX2 =    0.0255             !
 ! A137  A(63,72,69)           108.4515         D2E/DX2 =    0.0256             !
 ! A138  A(66,72,69)           108.7256         D2E/DX2 =    0.0253             !
 ! A139  L(49,1,61,17,-1)      167.8625         D2E/DX2 =    0.0241             !
 ! A140  L(49,1,61,17,-2)      184.9823         D2E/DX2 =    0.0311             !
 ! D1    D(49,1,17,16)           2.3515         D2E/DX2 =    0.0288             !
 ! D2    D(50,1,17,16)         -35.4567         D2E/DX2 =    0.01               !
 ! D3    D(61,1,17,16)         177.3692         D2E/DX2 =    0.0193             !
 ! D4    D(17,1,49,20)        -112.4938         D2E/DX2 =    0.0209             !
 ! D5    D(50,1,49,20)          54.5731         D2E/DX2 =    0.0115             !
 ! D6    D(20,49,61,52)         -5.527          D2E/DX2 =    0.0121             !
 ! D7    D(20,49,61,53)       -124.8569         D2E/DX2 =    0.0112             !
 ! D8    D(20,49,61,66)        117.3108         D2E/DX2 =    0.0107             !
 ! D9    D(17,1,61,52)         110.4186         D2E/DX2 =    0.0085             !
 ! D10   D(17,1,61,53)         -10.7323         D2E/DX2 =    0.0089             !
 ! D11   D(17,1,61,66)        -131.481          D2E/DX2 =    0.0079             !
 ! D12   D(50,1,61,52)         -58.3492         D2E/DX2 =    0.0063             !
 ! D13   D(50,1,61,53)        -179.5002         D2E/DX2 =    0.007              !
 ! D14   D(50,1,61,66)          59.7511         D2E/DX2 =    0.0069             !
 ! D15   D(32,2,3,4)            46.1304         D2E/DX2 =    0.018              !
 ! D16   D(32,2,3,6)           -73.2604         D2E/DX2 =    0.0184             !
 ! D17   D(32,2,3,31)          169.7314         D2E/DX2 =    0.0141             !
 ! D18   D(33,2,3,4)           -69.5837         D2E/DX2 =    0.0166             !
 ! D19   D(33,2,3,6)           171.0256         D2E/DX2 =    0.0175             !
 ! D20   D(33,2,3,31)           54.0174         D2E/DX2 =    0.0128             !
 ! D21   D(2,3,4,5)            -46.3577         D2E/DX2 =    0.0204             !
 ! D22   D(2,3,4,8)            133.0003         D2E/DX2 =    0.0234             !
 ! D23   D(6,3,4,5)             73.319          D2E/DX2 =    0.0368             !
 ! D24   D(6,3,4,8)           -107.323          D2E/DX2 =    0.0528             !
 ! D25   D(31,3,4,5)          -168.1937         D2E/DX2 =    0.0145             !
 ! D26   D(31,3,4,8)            11.1642         D2E/DX2 =    0.0184             !
 ! D27   D(2,3,6,7)            173.0429         D2E/DX2 =    0.023              !
 ! D28   D(2,3,6,28)           -61.2931         D2E/DX2 =    0.0187             !
 ! D29   D(2,3,6,29)            55.2243         D2E/DX2 =    0.0199             !
 ! D30   D(4,3,6,7)             50.9236         D2E/DX2 =    0.025              !
 ! D31   D(4,3,6,28)           176.5875         D2E/DX2 =    0.0216             !
 ! D32   D(4,3,6,29)           -66.8951         D2E/DX2 =    0.0205             !
 ! D33   D(31,3,6,7)           -69.7452         D2E/DX2 =    0.0196             !
 ! D34   D(31,3,6,28)           55.9188         D2E/DX2 =    0.0155             !
 ! D35   D(31,3,6,29)          172.4362         D2E/DX2 =    0.0167             !
 ! D36   D(3,4,8,9)             -3.9676         D2E/DX2 =    0.0213             !
 ! D37   D(3,4,8,36)           175.004          D2E/DX2 =    0.0118             !
 ! D38   D(5,4,8,9)            175.3788         D2E/DX2 =    0.0407             !
 ! D39   D(5,4,8,36)            -5.6497         D2E/DX2 =    0.0169             !
 ! D40   D(3,6,7,30)            60.8426         D2E/DX2 =    0.0232             !
 ! D41   D(28,6,7,30)          -61.777          D2E/DX2 =    0.0264             !
 ! D42   D(29,6,7,30)          179.7539         D2E/DX2 =    0.0287             !
 ! D43   D(4,8,9,10)            89.0064         D2E/DX2 =    0.0368             !
 ! D44   D(4,8,9,34)           -29.6429         D2E/DX2 =    0.0152             !
 ! D45   D(4,8,9,35)          -146.0977         D2E/DX2 =    0.0284             !
 ! D46   D(36,8,9,10)          -89.9377         D2E/DX2 =    0.0258             !
 ! D47   D(36,8,9,34)          151.413          D2E/DX2 =    0.0233             !
 ! D48   D(36,8,9,35)           34.9582         D2E/DX2 =    0.0163             !
 ! D49   D(8,9,10,11)          -88.8004         D2E/DX2 =    0.0975             !
 ! D50   D(8,9,10,12)           91.0555         D2E/DX2 =    0.1892             !
 ! D51   D(34,9,10,11)          32.2906         D2E/DX2 =    0.0205             !
 ! D52   D(34,9,10,12)        -147.8535         D2E/DX2 =    0.059              !
 ! D53   D(35,9,10,11)         148.8045         D2E/DX2 =    0.0269             !
 ! D54   D(35,9,10,12)         -31.3396         D2E/DX2 =    0.0426             !
 ! D55   D(9,10,12,13)           7.4287         D2E/DX2 =    0.0474             !
 ! D56   D(9,10,12,40)         177.2561         D2E/DX2 =    0.0619             !
 ! D57   D(11,10,12,13)       -172.716          D2E/DX2 =    0.0773             !
 ! D58   D(11,10,12,40)         -2.8886         D2E/DX2 =    0.0252             !
 ! D59   D(10,12,13,14)        -98.985          D2E/DX2 =    0.1507             !
 ! D60   D(10,12,13,16)        136.3021         D2E/DX2 =    0.0858             !
 ! D61   D(10,12,13,39)         19.8685         D2E/DX2 =    0.0298             !
 ! D62   D(40,12,13,14)         91.4235         D2E/DX2 =    0.0435             !
 ! D63   D(40,12,13,16)        -33.2894         D2E/DX2 =    0.025              !
 ! D64   D(40,12,13,39)       -149.723          D2E/DX2 =    0.0256             !
 ! D65   D(12,13,14,15)        154.5128         D2E/DX2 =    0.1044             !
 ! D66   D(12,13,14,18)        -29.5235         D2E/DX2 =    0.0815             !
 ! D67   D(16,13,14,15)        -79.7303         D2E/DX2 =    0.0169             !
 ! D68   D(16,13,14,18)         96.2333         D2E/DX2 =    0.038              !
 ! D69   D(39,13,14,15)         33.0223         D2E/DX2 =    0.0154             !
 ! D70   D(39,13,14,18)       -151.0141         D2E/DX2 =    0.0346             !
 ! D71   D(12,13,16,17)         48.6512         D2E/DX2 =    0.0229             !
 ! D72   D(12,13,16,37)        -66.0382         D2E/DX2 =    0.0325             !
 ! D73   D(12,13,16,38)        175.2636         D2E/DX2 =    0.0344             !
 ! D74   D(14,13,16,17)        -80.2476         D2E/DX2 =    0.0489             !
 ! D75   D(14,13,16,37)        165.0629         D2E/DX2 =    0.0278             !
 ! D76   D(14,13,16,38)         46.3647         D2E/DX2 =    0.0272             !
 ! D77   D(39,13,16,17)        167.5637         D2E/DX2 =    0.0241             !
 ! D78   D(39,13,16,37)         52.8742         D2E/DX2 =    0.015              !
 ! D79   D(39,13,16,38)        -65.824          D2E/DX2 =    0.0143             !
 ! D80   D(13,14,18,19)       -149.7245         D2E/DX2 =    0.0941             !
 ! D81   D(13,14,18,44)          2.0877         D2E/DX2 =    0.05               !
 ! D82   D(15,14,18,19)         26.0414         D2E/DX2 =    0.0442             !
 ! D83   D(15,14,18,44)        177.8536         D2E/DX2 =    0.0355             !
 ! D84   D(13,16,17,1)          84.468          D2E/DX2 =    0.0407             !
 ! D85   D(37,16,17,1)        -157.1218         D2E/DX2 =    0.0279             !
 ! D86   D(38,16,17,1)         -41.7099         D2E/DX2 =    0.0242             !
 ! D87   D(14,18,19,20)         99.0062         D2E/DX2 =    0.0268             !
 ! D88   D(14,18,19,21)       -140.2038         D2E/DX2 =    0.0933             !
 ! D89   D(14,18,19,43)        -20.4745         D2E/DX2 =    0.0271             !
 ! D90   D(44,18,19,20)        -53.131          D2E/DX2 =    0.024              !
 ! D91   D(44,18,19,21)         67.659          D2E/DX2 =    0.0453             !
 ! D92   D(44,18,19,43)       -172.6117         D2E/DX2 =    0.0235             !
 ! D93   D(18,19,20,41)       -171.3457         D2E/DX2 =    0.0196             !
 ! D94   D(18,19,20,42)         69.4875         D2E/DX2 =    0.0238             !
 ! D95   D(18,19,20,49)        -53.8844         D2E/DX2 =    0.0258             !
 ! D96   D(21,19,20,41)         66.8437         D2E/DX2 =    0.0317             !
 ! D97   D(21,19,20,42)        -52.3231         D2E/DX2 =    0.0253             !
 ! D98   D(21,19,20,49)       -175.6949         D2E/DX2 =    0.0546             !
 ! D99   D(43,19,20,41)        -54.6086         D2E/DX2 =    0.0153             !
 ! D100  D(43,19,20,42)       -173.7754         D2E/DX2 =    0.0173             !
 ! D101  D(43,19,20,49)         62.8527         D2E/DX2 =    0.016              !
 ! D102  D(18,19,21,22)       -100.7351         D2E/DX2 =    0.0665             !
 ! D103  D(18,19,21,23)         81.3381         D2E/DX2 =    0.1634             !
 ! D104  D(20,19,21,22)         21.2023         D2E/DX2 =    0.0433             !
 ! D105  D(20,19,21,23)       -156.7244         D2E/DX2 =    0.1122             !
 ! D106  D(43,19,21,22)        142.4704         D2E/DX2 =    0.0361             !
 ! D107  D(43,19,21,23)        -35.4564         D2E/DX2 =    0.0538             !
 ! D108  D(19,20,49,1)         135.1591         D2E/DX2 =    0.0352             !
 ! D109  D(41,20,49,1)        -103.1784         D2E/DX2 =    0.0223             !
 ! D110  D(42,20,49,1)          10.3615         D2E/DX2 =    0.0235             !
 ! D111  D(19,21,23,24)        -22.1017         D2E/DX2 =    0.0989             !
 ! D112  D(19,21,23,47)       -170.2984         D2E/DX2 =    0.0652             !
 ! D113  D(22,21,23,24)        160.011          D2E/DX2 =    0.1231             !
 ! D114  D(22,21,23,47)         11.8143         D2E/DX2 =    0.0388             !
 ! D115  D(21,23,24,25)       -103.6495         D2E/DX2 =    0.0825             !
 ! D116  D(21,23,24,45)        137.8739         D2E/DX2 =    0.0353             !
 ! D117  D(21,23,24,46)         19.4179         D2E/DX2 =    0.0238             !
 ! D118  D(47,23,24,25)         44.0695         D2E/DX2 =    0.0412             !
 ! D119  D(47,23,24,45)        -74.4071         D2E/DX2 =    0.0175             !
 ! D120  D(47,23,24,46)        167.1369         D2E/DX2 =    0.0311             !
 ! D121  D(23,24,25,26)        -23.8961         D2E/DX2 =    0.0251             !
 ! D122  D(23,24,25,27)        157.3732         D2E/DX2 =    0.0545             !
 ! D123  D(45,24,25,26)         95.9023         D2E/DX2 =    0.0249             !
 ! D124  D(45,24,25,27)        -82.8284         D2E/DX2 =    0.0271             !
 ! D125  D(46,24,25,26)       -147.7268         D2E/DX2 =    0.0256             !
 ! D126  D(46,24,25,27)         33.5425         D2E/DX2 =    0.0233             !
 ! D127  D(24,25,27,48)       -173.9594         D2E/DX2 =    0.0585             !
 ! D128  D(26,25,27,48)          7.3421         D2E/DX2 =    0.0241             !
 ! D129  D(54,51,60,53)       -179.9102         D2E/DX2 =    0.0222             !
 ! D130  D(54,51,60,63)         62.4299         D2E/DX2 =    0.0224             !
 ! D131  D(58,51,60,53)        -61.7127         D2E/DX2 =    0.0219             !
 ! D132  D(58,51,60,63)       -179.3726         D2E/DX2 =    0.0225             !
 ! D133  D(62,51,60,53)         59.3848         D2E/DX2 =    0.0198             !
 ! D134  D(62,51,60,63)        -58.2751         D2E/DX2 =    0.0206             !
 ! D135  D(54,51,62,52)        179.7391         D2E/DX2 =    0.0222             !
 ! D136  D(54,51,62,69)        -62.0747         D2E/DX2 =    0.0223             !
 ! D137  D(58,51,62,52)         61.315          D2E/DX2 =    0.022              !
 ! D138  D(58,51,62,69)        179.5012         D2E/DX2 =    0.0224             !
 ! D139  D(60,51,62,52)        -59.7429         D2E/DX2 =    0.0199             !
 ! D140  D(60,51,62,69)         58.4433         D2E/DX2 =    0.0204             !
 ! D141  D(55,52,61,1)          55.88           D2E/DX2 =    0.0131             !
 ! D142  D(55,52,61,53)       -179.5142         D2E/DX2 =    0.0161             !
 ! D143  D(55,52,61,66)        -63.7848         D2E/DX2 =    0.0166             !
 ! D144  D(59,52,61,1)         -61.5981         D2E/DX2 =    0.0125             !
 ! D145  D(59,52,61,53)         63.0078         D2E/DX2 =    0.016              !
 ! D146  D(59,52,61,66)        178.7371         D2E/DX2 =    0.0163             !
 ! D147  D(62,52,61,1)         177.7724         D2E/DX2 =    0.0135             !
 ! D148  D(62,52,61,53)        -57.6217         D2E/DX2 =    0.0161             !
 ! D149  D(62,52,61,66)         58.1076         D2E/DX2 =    0.0162             !
 ! D150  D(55,52,62,51)        178.294          D2E/DX2 =    0.0239             !
 ! D151  D(55,52,62,69)         60.2254         D2E/DX2 =    0.0237             !
 ! D152  D(59,52,62,51)        -60.5147         D2E/DX2 =    0.0235             !
 ! D153  D(59,52,62,69)       -178.5833         D2E/DX2 =    0.0235             !
 ! D154  D(61,52,62,51)         58.7671         D2E/DX2 =    0.0175             !
 ! D155  D(61,52,62,69)        -59.3015         D2E/DX2 =    0.0175             !
 ! D156  D(56,53,60,51)         61.5353         D2E/DX2 =    0.0231             !
 ! D157  D(56,53,60,63)        178.834          D2E/DX2 =    0.0231             !
 ! D158  D(57,53,60,51)       -178.5866         D2E/DX2 =    0.0233             !
 ! D159  D(57,53,60,63)        -61.2879         D2E/DX2 =    0.0233             !
 ! D160  D(61,53,60,51)        -58.5363         D2E/DX2 =    0.0174             !
 ! D161  D(61,53,60,63)         58.7624         D2E/DX2 =    0.0175             !
 ! D162  D(56,53,61,1)          58.9209         D2E/DX2 =    0.0122             !
 ! D163  D(56,53,61,52)        -63.636          D2E/DX2 =    0.0163             !
 ! D164  D(56,53,61,66)       -179.1127         D2E/DX2 =    0.0162             !
 ! D165  D(57,53,61,1)         -58.693          D2E/DX2 =    0.0123             !
 ! D166  D(57,53,61,52)        178.7501         D2E/DX2 =    0.0162             !
 ! D167  D(57,53,61,66)         63.2733         D2E/DX2 =    0.0164             !
 ! D168  D(60,53,61,1)        -179.8565         D2E/DX2 =    0.0133             !
 ! D169  D(60,53,61,52)         57.5866         D2E/DX2 =    0.0163             !
 ! D170  D(60,53,61,66)        -57.8901         D2E/DX2 =    0.0163             !
 ! D171  D(51,60,63,64)        179.4719         D2E/DX2 =    0.0223             !
 ! D172  D(51,60,63,65)        -62.3329         D2E/DX2 =    0.0224             !
 ! D173  D(51,60,63,72)         58.3504         D2E/DX2 =    0.0205             !
 ! D174  D(53,60,63,64)         61.7317         D2E/DX2 =    0.0218             !
 ! D175  D(53,60,63,65)        179.9269         D2E/DX2 =    0.0222             !
 ! D176  D(53,60,63,72)        -59.3898         D2E/DX2 =    0.0198             !
 ! D177  D(1,61,66,67)         -56.2093         D2E/DX2 =    0.0129             !
 ! D178  D(1,61,66,68)          61.3283         D2E/DX2 =    0.0121             !
 ! D179  D(1,61,66,72)        -178.0236         D2E/DX2 =    0.0133             !
 ! D180  D(52,61,66,67)         63.7255         D2E/DX2 =    0.0166             !
 ! D181  D(52,61,66,68)       -178.7369         D2E/DX2 =    0.0162             !
 ! D182  D(52,61,66,72)        -58.0887         D2E/DX2 =    0.0163             !
 ! D183  D(53,61,66,67)        179.5027         D2E/DX2 =    0.0161             !
 ! D184  D(53,61,66,68)        -62.9596         D2E/DX2 =    0.0161             !
 ! D185  D(53,61,66,72)         57.6885         D2E/DX2 =    0.0161             !
 ! D186  D(51,62,69,70)         62.299          D2E/DX2 =    0.0224             !
 ! D187  D(51,62,69,71)       -179.067          D2E/DX2 =    0.0226             !
 ! D188  D(51,62,69,72)        -58.1889         D2E/DX2 =    0.0204             !
 ! D189  D(52,62,69,70)       -179.4104         D2E/DX2 =    0.0224             !
 ! D190  D(52,62,69,71)        -60.7764         D2E/DX2 =    0.0221             !
 ! D191  D(52,62,69,72)         60.1016         D2E/DX2 =    0.0198             !
 ! D192  D(60,63,72,66)         59.6562         D2E/DX2 =    0.0198             !
 ! D193  D(60,63,72,69)        -58.5296         D2E/DX2 =    0.0204             !
 ! D194  D(64,63,72,66)        -61.4125         D2E/DX2 =    0.0219             !
 ! D195  D(64,63,72,69)       -179.5983         D2E/DX2 =    0.0224             !
 ! D196  D(65,63,72,66)       -179.8171         D2E/DX2 =    0.0224             !
 ! D197  D(65,63,72,69)         61.9971         D2E/DX2 =    0.0224             !
 ! D198  D(61,66,72,63)        -58.6944         D2E/DX2 =    0.0175             !
 ! D199  D(61,66,72,69)         59.3189         D2E/DX2 =    0.0175             !
 ! D200  D(67,66,72,63)       -178.1829         D2E/DX2 =    0.0235             !
 ! D201  D(67,66,72,69)        -60.1696         D2E/DX2 =    0.0235             !
 ! D202  D(68,66,72,63)         60.5991         D2E/DX2 =    0.0234             !
 ! D203  D(68,66,72,69)        178.6124         D2E/DX2 =    0.0234             !
 ! D204  D(62,69,72,63)         58.2059         D2E/DX2 =    0.0204             !
 ! D205  D(62,69,72,66)        -60.1182         D2E/DX2 =    0.0199             !
 ! D206  D(70,69,72,63)        -62.2959         D2E/DX2 =    0.0224             !
 ! D207  D(70,69,72,66)        179.3799         D2E/DX2 =    0.0223             !
 ! D208  D(71,69,72,63)        179.0763         D2E/DX2 =    0.0225             !
 ! D209  D(71,69,72,66)         60.7521         D2E/DX2 =    0.022              !
 --------------------------------------------------------------------------------
 Trust Radius=3.00D-01 FncErr=1.00D-07 GrdErr=1.00D-06
 Number of steps in this run=    432 maximum allowed number of steps=    432.
 Search for a saddle point of order  1.
 GradGradGradGradGradGradGradGradGradGradGradGradGradGradGradGradGradGrad

 Stoichiometry    C19H33AuClN9O7SSe
 Framework group  C1[X(C19H33AuClN9O7SSe)]
 Deg. of freedom   210
 Full point group                 C1      NOp   1
 Largest Abelian subgroup         C1      NOp   1
 Largest concise Abelian subgroup C1      NOp   1
                         Standard orientation:                         
 ---------------------------------------------------------------------
 Center     Atomic      Atomic             Coordinates (Angstroms)
 Number     Number       Type             X           Y           Z
 ---------------------------------------------------------------------
      1         79           0        2.761791   -0.644943   -0.254639
      2          7           0       -7.790187    3.559717    0.343222
      3          6           0       -6.397902    3.115289    0.341827
      4          6           0       -6.259507    1.626334    0.000802
      5          8           0       -7.011083    0.818788    0.567677
      6          6           0       -5.809299    3.339168    1.756157
      7          8           0       -4.515219    2.801446    1.913662
      8          7           0       -5.344068    1.188981   -0.912756
      9          6           0       -4.442597    1.969115   -1.747348
     10          6           0       -3.085884    2.266851   -1.081488
     11          8           0       -2.945153    3.271866   -0.387198
     12          7           0       -2.045600    1.400607   -1.269714
     13          6           0       -1.943736    0.246426   -2.149813
     14          6           0       -2.181344   -1.129085   -1.499892
     15          8           0       -2.574126   -2.057971   -2.197188
     16          6           0       -0.573412    0.225029   -2.870512
     17         16           0        0.941812    0.466535   -1.823931
     18          7           0       -1.856654   -1.260242   -0.180437
     19          6           0       -1.416312   -2.561227    0.326989
     20          6           0        0.113330   -2.618428    0.424186
     21          6           0       -2.016630   -2.830509    1.727066
     22          8           0       -1.340313   -2.661277    2.733021
     23          7           0       -3.300009   -3.299956    1.783709
     24          6           0       -4.330181   -3.175081    0.765355
     25          6           0       -5.332004   -2.091857    1.170039
     26          8           0       -5.508168   -1.757465    2.320131
     27          8           0       -5.993151   -1.593058    0.114317
     28          1           0       -5.856364    4.417494    1.966660
     29          1           0       -6.448675    2.823860    2.480148
     30          1           0       -3.919827    3.238126    1.277990
     31          1           0       -5.838273    3.740126   -0.359999
     32          1           0       -8.339964    2.873873    0.860972
     33          1           0       -8.162850    3.564845   -0.604935
     34          1           0       -4.884053    2.940355   -1.972439
     35          1           0       -4.329449    1.439594   -2.696922
     36          1           0       -5.292349    0.176747   -0.994130
     37          1           0       -0.519315    1.086815   -3.547464
     38          1           0       -0.486305   -0.690199   -3.458332
     39          1           0       -2.693872    0.316764   -2.940886
     40          1           0       -1.181016    1.705666   -0.827111
     41          1           0        0.465683   -3.628230    0.655055
     42          1           0        0.488221   -1.969685    1.214268
     43          1           0       -1.777210   -3.297923   -0.393149
     44          1           0       -1.509477   -0.441494    0.305276
     45          1           0       -4.879598   -4.121897    0.669634
     46          1           0       -3.906399   -2.956329   -0.214672
     47          1           0       -3.662550   -3.297001    2.733726
     48          1           0       -6.562518   -0.821482    0.419598
     49         34           0        1.034028   -2.153010   -1.288243
     50         17           0        3.767198   -2.220269    1.496166
     51          6           0        4.722655    3.560992    1.288375
     52          6           0        4.005903    1.333415    1.739765
     53          6           0        3.946028    2.230328   -0.534144
     54          1           0        5.431298    4.343759    1.576683
     55          1           0        4.163460    0.419015    2.315365
     56          1           0        2.920449    2.575971   -0.372112
     57          1           0        4.070607    1.981368   -1.592386
     58          1           0        3.706820    3.930831    1.463002
     59          1           0        2.982418    1.686508    1.897467
     60          7           0        4.892536    3.272168   -0.150864
     61          7           0        4.149743    0.972155    0.271171
     62          7           0        4.954915    2.369245    2.122911
     63          6           0        6.263690    2.761484   -0.355901
     64          1           0        6.406466    2.532172   -1.417305
     65          1           0        6.976791    3.541269   -0.070484
     66          6           0        5.581043    0.513871    0.056858
     67          1           0        5.723930   -0.392010    0.649655
     68          1           0        5.699087    0.273262   -1.004014
     69          6           0        6.322196    1.876833    1.867121
     70          1           0        7.039950    2.648381    2.163579
     71          1           0        6.500091    0.981255    2.469782
     72          7           0        6.528818    1.551421    0.441945
 ---------------------------------------------------------------------
 Rotational constants (GHZ):      0.1080739      0.0357183      0.0313889
 General basis read from cards:  (5D, 7F)
 ======================================================================================================
                                       Pseudopotential Parameters
 ======================================================================================================
  Center     Atomic      Valence      Angular      Power
  Number     Number     Electrons     Momentum     of R      Exponent        Coefficient   SO-Coeffient
 ======================================================================================================
    1         79           19
                                      G and up 
                                                     1      622.6287956      -60.00000000    0.00000000
                                                     2      136.2843607     -555.52923120    0.00000000
                                                     2       33.1549781     -168.00197850    0.00000000
                                                     2        9.9894895      -63.03998750    0.00000000
                                                     2        3.0481312       -4.25166810    0.00000000
                                      S - G
                                                     0      194.7374304        3.00000000    0.00000000
                                                     1      351.5327447       38.60208800    0.00000000
                                                     2      122.3270402      864.83707270    0.00000000
                                                     2       32.0914617      374.99355200    0.00000000
                                                     2        5.2451812      289.79101000    0.00000000
                                                     2        4.4916223     -152.45327730    0.00000000
                                      P - G
                                                     0      420.6158801        2.00000000    0.00000000
                                                     1      109.4417815       73.88856250    0.00000000
                                                     2       34.1714280      326.67298720    0.00000000
                                                     2        5.9879750      126.58145910    0.00000000
                                      D - G
                                                     0      219.2666158        3.00000000    0.00000000
                                                     1      122.7297786       55.67931490    0.00000000
                                                     2       63.1063369      449.19873350    0.00000000
                                                     2       18.3684520      215.02690910    0.00000000
                                                     2        4.4972844       64.08409950    0.00000000
                                      F - G
                                                     0      108.5506037        4.00000000    0.00000000
                                                     1       56.4795527       51.80653350    0.00000000
                                                     2       29.2069159      231.21831130    0.00000000
                                                     2        9.5440543      119.00473860    0.00000000
                                                     2        2.8965118       15.34241880    0.00000000
    2          7
                                   No pseudopotential on this center.
    3          6
                                   No pseudopotential on this center.
    4          6
                                   No pseudopotential on this center.
    5          8
                                   No pseudopotential on this center.
    6          6
                                   No pseudopotential on this center.
    7          8
                                   No pseudopotential on this center.
    8          7
                                   No pseudopotential on this center.
    9          6
                                   No pseudopotential on this center.
   10          6
                                   No pseudopotential on this center.
   11          8
                                   No pseudopotential on this center.
   12          7
                                   No pseudopotential on this center.
   13          6
                                   No pseudopotential on this center.
   14          6
                                   No pseudopotential on this center.
   15          8
                                   No pseudopotential on this center.
   16          6
                                   No pseudopotential on this center.
   17         16
                                   No pseudopotential on this center.
   18          7
                                   No pseudopotential on this center.
   19          6
                                   No pseudopotential on this center.
   20          6
                                   No pseudopotential on this center.
   21          6
                                   No pseudopotential on this center.
   22          8
                                   No pseudopotential on this center.
   23          7
                                   No pseudopotential on this center.
   24          6
                                   No pseudopotential on this center.
   25          6
                                   No pseudopotential on this center.
   26          8
                                   No pseudopotential on this center.
   27          8
                                   No pseudopotential on this center.
   28          1
                                   No pseudopotential on this center.
   29          1
                                   No pseudopotential on this center.
   30          1
                                   No pseudopotential on this center.
   31          1
                                   No pseudopotential on this center.
   32          1
                                   No pseudopotential on this center.
   33          1
                                   No pseudopotential on this center.
   34          1
                                   No pseudopotential on this center.
   35          1
                                   No pseudopotential on this center.
   36          1
                                   No pseudopotential on this center.
   37          1
                                   No pseudopotential on this center.
   38          1
                                   No pseudopotential on this center.
   39          1
                                   No pseudopotential on this center.
   40          1
                                   No pseudopotential on this center.
   41          1
                                   No pseudopotential on this center.
   42          1
                                   No pseudopotential on this center.
   43          1
                                   No pseudopotential on this center.
   44          1
                                   No pseudopotential on this center.
   45          1
                                   No pseudopotential on this center.
   46          1
                                   No pseudopotential on this center.
   47          1
                                   No pseudopotential on this center.
   48          1
                                   No pseudopotential on this center.
   49         34
                                   No pseudopotential on this center.
   50         17
                                   No pseudopotential on this center.
   51          6
                                   No pseudopotential on this center.
   52          6
                                   No pseudopotential on this center.
   53          6
                                   No pseudopotential on this center.
   54          1
                                   No pseudopotential on this center.
   55          1
                                   No pseudopotential on this center.
   56          1
                                   No pseudopotential on this center.
   57          1
                                   No pseudopotential on this center.
   58          1
                                   No pseudopotential on this center.
   59          1
                                   No pseudopotential on this center.
   60          7
                                   No pseudopotential on this center.
   61          7
                                   No pseudopotential on this center.
   62          7
                                   No pseudopotential on this center.
   63          6
                                   No pseudopotential on this center.
   64          1
                                   No pseudopotential on this center.
   65          1
                                   No pseudopotential on this center.
   66          6
                                   No pseudopotential on this center.
   67          1
                                   No pseudopotential on this center.
   68          1
                                   No pseudopotential on this center.
   69          6
                                   No pseudopotential on this center.
   70          1
                                   No pseudopotential on this center.
   71          1
                                   No pseudopotential on this center.
   72          7
                                   No pseudopotential on this center.
 ======================================================================================================
 There are   707 symmetry adapted cartesian basis functions of A   symmetry.
 There are   662 symmetry adapted basis functions of A   symmetry.
   662 basis functions,  1347 primitive gaussians,   707 cartesian basis functions
   176 alpha electrons      176 beta electrons
       nuclear repulsion energy      6548.1296090049 Hartrees.
 NAtoms=   72 NActive=   72 NUniq=   72 SFac= 1.00D+00 NAtFMM=   60 NAOKFM=T Big=T
 Integral buffers will be    131072 words long.
 Raffenetti 2 integral format.
 Two-electron integral symmetry is turned on.
 One-electron integrals computed using PRISM.
   1 Symmetry operations used in ECPInt.
 ECPInt:  NShTT=   29403 NPrTT=  178758 LenC2=   20642 LenP2D=   64861.
 LDataN:  DoStor=T MaxTD1= 7 Len=  274
 NBasis=   662 RedAO= T EigKep=  2.32D-03  NBF=   662
 NBsUse=   662 1.00D-06 EigRej= -1.00D+00 NBFU=   662
 Defaulting to unpruned grid for atomic number  79.
 ExpMin= 2.79D-02 ExpMax= 5.61D+05 ExpMxC= 5.42D+03 IAcc=3 IRadAn=         5 AccDes= 0.00D+00
 Harris functional with IExCor=  402 and IRadAn=       5 diagonalized for initial guess.
 HarFok:  IExCor=  402 AccDes= 0.00D+00 IRadAn=         5 IDoV= 1 UseB2=F ITyADJ=14
 ICtDFT=  3500011 ScaDFX=  1.000000  1.000000  1.000000  1.000000
 Defaulting to unpruned grid for atomic number  79.
 Defaulting to unpruned grid for atomic number  79.
 Defaulting to unpruned grid for atomic number  79.
 Defaulting to unpruned grid for atomic number  79.
 Defaulting to unpruned grid for atomic number  79.
 Defaulting to unpruned grid for atomic number  79.
 Defaulting to unpruned grid for atomic number  79.
 Defaulting to unpruned grid for atomic number  79.
 Defaulting to unpruned grid for atomic number  79.
 Defaulting to unpruned grid for atomic number  79.
 Defaulting to unpruned grid for atomic number  79.
 Defaulting to unpruned grid for atomic number  79.
 Defaulting to unpruned grid for atomic number  79.
 Defaulting to unpruned grid for atomic number  79.
 Defaulting to unpruned grid for atomic number  79.
 FoFCou: FMM=F IPFlag=           0 FMFlag=      100000 FMFlg1=        2001
         NFxFlg=           0 DoJE=T BraDBF=F KetDBF=T FulRan=T
         wScrn=  0.000000 ICntrl=     500 IOpCl=  0 I1Cent=   200000004 NGrid=           0
         NMat0=    1 NMatS0=      1 NMatT0=    0 NMatD0=    1 NMtDS0=    0 NMtDT0=    0
 Petite list used in FoFCou.
 Requested convergence on RMS density matrix=1.00D-08 within 128 cycles.
 Requested convergence on MAX density matrix=1.00D-06.
 Requested convergence on             energy=1.00D-06.
 No special actions if energy rises.
 Defaulting to unpruned grid for atomic number  79.
 Defaulting to unpruned grid for atomic number  79.
 Defaulting to unpruned grid for atomic number  79.
 Defaulting to unpruned grid for atomic number  79.
 Defaulting to unpruned grid for atomic number  79.
 Defaulting to unpruned grid for atomic number  79.
 Defaulting to unpruned grid for atomic number  79.
 Defaulting to unpruned grid for atomic number  79.
 Defaulting to unpruned grid for atomic number  79.
 Defaulting to unpruned grid for atomic number  79.
 Defaulting to unpruned grid for atomic number  79.
 Defaulting to unpruned grid for atomic number  79.
 Defaulting to unpruned grid for atomic number  79.
 Defaulting to unpruned grid for atomic number  79.
 Defaulting to unpruned grid for atomic number  79.
 EnCoef did     5 forward-backward iterations
 EnCoef did     2 forward-backward iterations
 EnCoef did     4 forward-backward iterations
 EnCoef did     1 forward-backward iterations
 SCF Done:  E(RB3LYP) =  -5156.00961898     A.U. after   19 cycles
            NFock= 19  Conv=0.65D-08     -V/T= 2.0191

 **********************************************************************

            Population analysis using the SCF density.

 **********************************************************************

 Orbital symmetries:
       Occupied  (A) (A) (A) (A) (A) (A) (A) (A) (A) (A) (A) (A)
                 (A) (A) (A) (A) (A) (A) (A) (A) (A) (A) (A) (A)
                 (A) (A) (A) (A) (A) (A) (A) (A) (A) (A) (A) (A)
                 (A) (A) (A) (A) (A) (A) (A) (A) (A) (A) (A) (A)
                 (A) (A) (A) (A) (A) (A) (A) (A) (A) (A) (A) (A)
                 (A) (A) (A) (A) (A) (A) (A) (A) (A) (A) (A) (A)
                 (A) (A) (A) (A) (A) (A) (A) (A) (A) (A) (A) (A)
                 (A) (A) (A) (A) (A) (A) (A) (A) (A) (A) (A) (A)
                 (A) (A) (A) (A) (A) (A) (A) (A) (A) (A) (A) (A)
                 (A) (A) (A) (A) (A) (A) (A) (A) (A) (A) (A) (A)
                 (A) (A) (A) (A) (A) (A) (A) (A) (A) (A) (A) (A)
                 (A) (A) (A) (A) (A) (A) (A) (A) (A) (A) (A) (A)
                 (A) (A) (A) (A) (A) (A) (A) (A) (A) (A) (A) (A)
                 (A) (A) (A) (A) (A) (A) (A) (A) (A) (A) (A) (A)
                 (A) (A) (A) (A) (A) (A) (A) (A)
       Virtual   (A) (A) (A) (A) (A) (A) (A) (A) (A) (A) (A) (A)
                 (A) (A) (A) (A) (A) (A) (A) (A) (A) (A) (A) (A)
                 (A) (A) (A) (A) (A) (A) (A) (A) (A) (A) (A) (A)
                 (A) (A) (A) (A) (A) (A) (A) (A) (A) (A) (A) (A)
                 (A) (A) (A) (A) (A) (A) (A) (A) (A) (A) (A) (A)
                 (A) (A) (A) (A) (A) (A) (A) (A) (A) (A) (A) (A)
                 (A) (A) (A) (A) (A) (A) (A) (A) (A) (A) (A) (A)
                 (A) (A) (A) (A) (A) (A) (A) (A) (A) (A) (A) (A)
                 (A) (A) (A) (A) (A) (A) (A) (A) (A) (A) (A) (A)
                 (A) (A) (A) (A) (A) (A) (A) (A) (A) (A) (A) (A)
                 (A) (A) (A) (A) (A) (A) (A) (A) (A) (A) (A) (A)
                 (A) (A) (A) (A) (A) (A) (A) (A) (A) (A) (A) (A)
                 (A) (A) (A) (A) (A) (A) (A) (A) (A) (A) (A) (A)
                 (A) (A) (A) (A) (A) (A) (A) (A) (A) (A) (A) (A)
                 (A) (A) (A) (A) (A) (A) (A) (A) (A) (A) (A) (A)
                 (A) (A) (A) (A) (A) (A) (A) (A) (A) (A) (A) (A)
                 (A) (A) (A) (A) (A) (A) (A) (A) (A) (A) (A) (A)
                 (A) (A) (A) (A) (A) (A) (A) (A) (A) (A) (A) (A)
                 (A) (A) (A) (A) (A) (A) (A) (A) (A) (A) (A) (A)
                 (A) (A) (A) (A) (A) (A) (A) (A) (A) (A) (A) (A)
                 (A) (A) (A) (A) (A) (A) (A) (A) (A) (A) (A) (A)
                 (A) (A) (A) (A) (A) (A) (A) (A) (A) (A) (A) (A)
                 (A) (A) (A) (A) (A) (A) (A) (A) (A) (A) (A) (A)
                 (A) (A) (A) (A) (A) (A) (A) (A) (A) (A) (A) (A)
                 (A) (A) (A) (A) (A) (A) (A) (A) (A) (A) (A) (A)
                 (A) (A) (A) (A) (A) (A) (A) (A) (A) (A) (A) (A)
                 (A) (A) (A) (A) (A) (A) (A) (A) (A) (A) (A) (A)
                 (A) (A) (A) (A) (A) (A) (A) (A) (A) (A) (A) (A)
                 (A) (A) (A) (A) (A) (A) (A) (A) (A) (A) (A) (A)
                 (A) (A) (A) (A) (A) (A) (A) (A) (A) (A) (A) (A)
                 (A) (A) (A) (A) (A) (A) (A) (A) (A) (A) (A) (A)
                 (A) (A) (A) (A) (A) (A) (A) (A) (A) (A) (A) (A)
                 (A) (A) (A) (A) (A) (A) (A) (A) (A) (A) (A) (A)
                 (A) (A) (A) (A) (A) (A) (A) (A) (A) (A) (A) (A)
                 (A) (A) (A) (A) (A) (A) (A) (A) (A) (A) (A) (A)
                 (A) (A) (A) (A) (A) (A) (A) (A) (A) (A) (A) (A)
                 (A) (A) (A) (A) (A) (A) (A) (A) (A) (A) (A) (A)
                 (A) (A) (A) (A) (A) (A) (A) (A) (A) (A) (A) (A)
                 (A) (A) (A) (A) (A) (A) (A) (A) (A) (A) (A) (A)
                 (A) (A) (A) (A) (A) (A) (A) (A) (A) (A) (A) (A)
                 (A) (A) (A) (A) (A) (A)
 The electronic state is 1-A.
 Alpha  occ. eigenvalues -- -453.60701-101.44546 -88.90468 -57.32578 -52.10141
 Alpha  occ. eigenvalues --  -52.10010 -52.09835 -19.18091 -19.15160 -19.14644
 Alpha  occ. eigenvalues --  -19.14080 -19.13511 -19.12277 -19.12261 -14.41354
 Alpha  occ. eigenvalues --  -14.39773 -14.38780 -14.38707 -14.36226 -14.35888
 Alpha  occ. eigenvalues --  -14.35551 -14.35522 -14.31843 -10.32815 -10.31755
 Alpha  occ. eigenvalues --  -10.31754 -10.30766 -10.29805 -10.27725 -10.27187
 Alpha  occ. eigenvalues --  -10.26525 -10.26264 -10.26222 -10.25884 -10.25847
 Alpha  occ. eigenvalues --  -10.25549 -10.25520 -10.25117 -10.23681 -10.23045
 Alpha  occ. eigenvalues --  -10.22540 -10.21998  -9.37461  -7.97600  -7.67586
 Alpha  occ. eigenvalues --   -7.13476  -7.12993  -7.12979  -5.94031  -5.93722
 Alpha  occ. eigenvalues --   -5.93018  -5.80582  -5.80125  -5.79477  -4.20039
 Alpha  occ. eigenvalues --   -2.34242  -2.33237  -2.32468  -2.16648  -2.16620
 Alpha  occ. eigenvalues --   -2.16079  -2.15708  -2.15614  -1.09890  -1.07561
 Alpha  occ. eigenvalues --   -1.06874  -1.05887  -1.04744  -1.04546  -1.01255
 Alpha  occ. eigenvalues --   -1.00560  -0.97132  -0.95496  -0.95006  -0.93575
 Alpha  occ. eigenvalues --   -0.93092  -0.92877  -0.92742  -0.89570  -0.82950
 Alpha  occ. eigenvalues --   -0.80638  -0.76841  -0.74999  -0.74440  -0.74056
 Alpha  occ. eigenvalues --   -0.73819  -0.73165  -0.72688  -0.71987  -0.69161
 Alpha  occ. eigenvalues --   -0.68208  -0.68168  -0.65686  -0.65131  -0.63904
 Alpha  occ. eigenvalues --   -0.63204  -0.62024  -0.61709  -0.59631  -0.59470
 Alpha  occ. eigenvalues --   -0.58891  -0.56682  -0.54145  -0.53558  -0.52797
 Alpha  occ. eigenvalues --   -0.52311  -0.52234  -0.52116  -0.51539  -0.50990
 Alpha  occ. eigenvalues --   -0.50915  -0.50768  -0.50606  -0.50534  -0.50291
 Alpha  occ. eigenvalues --   -0.49283  -0.49112  -0.48130  -0.47353  -0.46902
 Alpha  occ. eigenvalues --   -0.46595  -0.46231  -0.45981  -0.45090  -0.44845
 Alpha  occ. eigenvalues --   -0.44784  -0.44218  -0.43446  -0.43039  -0.42777
 Alpha  occ. eigenvalues --   -0.42296  -0.42158  -0.42095  -0.41971  -0.41323
 Alpha  occ. eigenvalues --   -0.41119  -0.41082  -0.40887  -0.40725  -0.39973
 Alpha  occ. eigenvalues --   -0.39620  -0.39433  -0.39411  -0.39357  -0.39131
 Alpha  occ. eigenvalues --   -0.38549  -0.38337  -0.37970  -0.37759  -0.36358
 Alpha  occ. eigenvalues --   -0.35383  -0.34692  -0.33939  -0.33370  -0.32333
 Alpha  occ. eigenvalues --   -0.31787  -0.31085  -0.30869  -0.30794  -0.29841
 Alpha  occ. eigenvalues --   -0.29528  -0.29008  -0.28638  -0.27951  -0.27798
 Alpha  occ. eigenvalues --   -0.27405  -0.26912  -0.26268  -0.26080  -0.25549
 Alpha  occ. eigenvalues --   -0.25345  -0.24788  -0.24636  -0.24417  -0.24164
 Alpha  occ. eigenvalues --   -0.21525
 Alpha virt. eigenvalues --   -0.13852  -0.05331  -0.03188  -0.02287  -0.01796
 Alpha virt. eigenvalues --   -0.00172   0.00167   0.00817   0.01302   0.02658
 Alpha virt. eigenvalues --    0.03347   0.03618   0.04998   0.06019   0.07095
 Alpha virt. eigenvalues --    0.07339   0.07838   0.08811   0.08932   0.09339
 Alpha virt. eigenvalues --    0.09726   0.10303   0.10696   0.11022   0.11518
 Alpha virt. eigenvalues --    0.12009   0.12049   0.12390   0.12684   0.12994
 Alpha virt. eigenvalues --    0.13390   0.14056   0.14403   0.14570   0.14859
 Alpha virt. eigenvalues --    0.15051   0.15524   0.15683   0.15873   0.16068
 Alpha virt. eigenvalues --    0.16305   0.16461   0.16546   0.16888   0.17119
 Alpha virt. eigenvalues --    0.17265   0.17917   0.18017   0.18168   0.18544
 Alpha virt. eigenvalues --    0.18612   0.18940   0.19523   0.19860   0.20273
 Alpha virt. eigenvalues --    0.20817   0.21227   0.21342   0.21905   0.22513
 Alpha virt. eigenvalues --    0.23217   0.23590   0.23911   0.24175   0.24596
 Alpha virt. eigenvalues --    0.24782   0.24927   0.25340   0.25841   0.26073
 Alpha virt. eigenvalues --    0.26511   0.26608   0.26746   0.27019   0.30272
 Alpha virt. eigenvalues --    0.30314   0.31622   0.32229   0.32851   0.33258
 Alpha virt. eigenvalues --    0.35163   0.35614   0.36210   0.36722   0.37152
 Alpha virt. eigenvalues --    0.37937   0.38686   0.39453   0.39779   0.41283
 Alpha virt. eigenvalues --    0.42127   0.42918   0.44274   0.44814   0.45412
 Alpha virt. eigenvalues --    0.45636   0.46876   0.47396   0.47874   0.48543
 Alpha virt. eigenvalues --    0.48941   0.49578   0.50157   0.51232   0.51561
 Alpha virt. eigenvalues --    0.51731   0.51952   0.52393   0.52545   0.53003
 Alpha virt. eigenvalues --    0.53246   0.53828   0.54112   0.54737   0.55015
 Alpha virt. eigenvalues --    0.55699   0.56052   0.56169   0.56670   0.56839
 Alpha virt. eigenvalues --    0.58296   0.58364   0.58668   0.59095   0.59734
 Alpha virt. eigenvalues --    0.60701   0.61176   0.61680   0.62258   0.62491
 Alpha virt. eigenvalues --    0.63116   0.63495   0.63938   0.64245   0.64551
 Alpha virt. eigenvalues --    0.65422   0.65517   0.65818   0.66206   0.66493
 Alpha virt. eigenvalues --    0.67186   0.67400   0.67699   0.67846   0.68184
 Alpha virt. eigenvalues --    0.68781   0.69393   0.71151   0.71761   0.72452
 Alpha virt. eigenvalues --    0.72778   0.72900   0.73960   0.74158   0.74696
 Alpha virt. eigenvalues --    0.74866   0.75204   0.76166   0.76553   0.77185
 Alpha virt. eigenvalues --    0.77980   0.78036   0.78385   0.78840   0.79180
 Alpha virt. eigenvalues --    0.79294   0.79603   0.79724   0.80067   0.80139
 Alpha virt. eigenvalues --    0.80564   0.80784   0.81588   0.82212   0.82545
 Alpha virt. eigenvalues --    0.82894   0.83278   0.84447   0.84919   0.85323
 Alpha virt. eigenvalues --    0.85563   0.86016   0.86278   0.86631   0.87055
 Alpha virt. eigenvalues --    0.87529   0.87658   0.88053   0.88335   0.88429
 Alpha virt. eigenvalues --    0.88830   0.88990   0.89238   0.89493   0.89923
 Alpha virt. eigenvalues --    0.90222   0.90726   0.90950   0.91207   0.91434
 Alpha virt. eigenvalues --    0.91723   0.92061   0.92103   0.92881   0.93019
 Alpha virt. eigenvalues --    0.93253   0.93501   0.93759   0.93929   0.94563
 Alpha virt. eigenvalues --    0.94937   0.94974   0.95425   0.96302   0.96845
 Alpha virt. eigenvalues --    0.97267   0.98034   0.98398   0.98834   0.99449
 Alpha virt. eigenvalues --    1.00034   1.00386   1.01479   1.01564   1.02657
 Alpha virt. eigenvalues --    1.02904   1.03768   1.04209   1.04625   1.05699
 Alpha virt. eigenvalues --    1.06511   1.07533   1.07631   1.08499   1.09662
 Alpha virt. eigenvalues --    1.09998   1.11160   1.11418   1.12148   1.12450
 Alpha virt. eigenvalues --    1.12860   1.13367   1.14298   1.14831   1.16502
 Alpha virt. eigenvalues --    1.18053   1.19166   1.19741   1.20630   1.22012
 Alpha virt. eigenvalues --    1.22995   1.23421   1.25013   1.25263   1.26997
 Alpha virt. eigenvalues --    1.27497   1.27788   1.28196   1.28339   1.28823
 Alpha virt. eigenvalues --    1.29213   1.30113   1.30791   1.31860   1.32883
 Alpha virt. eigenvalues --    1.33889   1.34450   1.36034   1.37811   1.38397
 Alpha virt. eigenvalues --    1.38733   1.39420   1.40309   1.41094   1.41478
 Alpha virt. eigenvalues --    1.41967   1.42632   1.44071   1.44307   1.44612
 Alpha virt. eigenvalues --    1.45224   1.45556   1.48326   1.50340   1.51056
 Alpha virt. eigenvalues --    1.51795   1.52118   1.53675   1.54910   1.55644
 Alpha virt. eigenvalues --    1.56478   1.58293   1.58912   1.59537   1.61351
 Alpha virt. eigenvalues --    1.61967   1.62154   1.62537   1.63159   1.64664
 Alpha virt. eigenvalues --    1.65405   1.66891   1.67103   1.67613   1.68285
 Alpha virt. eigenvalues --    1.70267   1.70694   1.70940   1.73205   1.73368
 Alpha virt. eigenvalues --    1.75125   1.75708   1.76738   1.77743   1.78007
 Alpha virt. eigenvalues --    1.78706   1.79324   1.80009   1.80678   1.80990
 Alpha virt. eigenvalues --    1.81342   1.82020   1.82743   1.82857   1.82973
 Alpha virt. eigenvalues --    1.83899   1.84261   1.84489   1.85115   1.85604
 Alpha virt. eigenvalues --    1.85739   1.86372   1.87159   1.88397   1.88547
 Alpha virt. eigenvalues --    1.88774   1.89229   1.89986   1.90192   1.90606
 Alpha virt. eigenvalues --    1.91881   1.92197   1.92258   1.92525   1.92854
 Alpha virt. eigenvalues --    1.93266   1.93450   1.94042   1.94472   1.95691
 Alpha virt. eigenvalues --    1.95855   1.96081   1.96364   1.96682   1.97295
 Alpha virt. eigenvalues --    1.98238   1.98517   1.99507   1.99621   1.99797
 Alpha virt. eigenvalues --    2.00305   2.00763   2.01024   2.01626   2.01689
 Alpha virt. eigenvalues --    2.02195   2.02706   2.03023   2.03966   2.05444
 Alpha virt. eigenvalues --    2.05568   2.06206   2.06941   2.07270   2.07370
 Alpha virt. eigenvalues --    2.07894   2.08238   2.09074   2.09807   2.10667
 Alpha virt. eigenvalues --    2.11354   2.11807   2.12430   2.12939   2.13500
 Alpha virt. eigenvalues --    2.13665   2.14174   2.14595   2.15007   2.15362
 Alpha virt. eigenvalues --    2.15771   2.17012   2.17733   2.18614   2.21183
 Alpha virt. eigenvalues --    2.21497   2.21652   2.23124   2.23706   2.25482
 Alpha virt. eigenvalues --    2.26118   2.26212   2.26522   2.27464   2.28128
 Alpha virt. eigenvalues --    2.28931   2.30092   2.30750   2.31726   2.33078
 Alpha virt. eigenvalues --    2.34140   2.36004   2.36606   2.36723   2.38028
 Alpha virt. eigenvalues --    2.38211   2.38823   2.38955   2.39186   2.40094
 Alpha virt. eigenvalues --    2.41486   2.42385   2.42676   2.44084   2.44362
 Alpha virt. eigenvalues --    2.44786   2.46616   2.49217   2.50634   2.51278
 Alpha virt. eigenvalues --    2.51637   2.53580   2.55176   2.55785   2.57345
 Alpha virt. eigenvalues --    2.58401   2.58672   2.59188   2.59543   2.60710
 Alpha virt. eigenvalues --    2.61849   2.63248   2.65452   2.65990   2.66024
 Alpha virt. eigenvalues --    2.66358   2.67027   2.67199   2.67657   2.68129
 Alpha virt. eigenvalues --    2.68385   2.70956   2.71831   2.73034   2.74887
 Alpha virt. eigenvalues --    2.75949   2.76578   2.76757   2.77142   2.82113
 Alpha virt. eigenvalues --    2.82416   2.82865   2.83778   2.84179   2.85437
 Alpha virt. eigenvalues --    2.87618   2.88387   2.89679   2.91671   2.92910
 Alpha virt. eigenvalues --    2.94160   2.97650   2.98297   3.00212   3.00784
 Alpha virt. eigenvalues --    3.03960   3.09018   3.09847   3.12983   3.13468
 Alpha virt. eigenvalues --    3.14594   7.97527  15.57272  15.64885  15.74315
 Alpha virt. eigenvalues --   43.14473
          Condensed to atoms (all electrons):
 Mulliken charges:
               1
     1  Au   0.071506
     2  N   -0.702061
     3  C   -0.108057
     4  C    0.590832
     5  O   -0.519988
     6  C   -0.003952
     7  O   -0.657480
     8  N   -0.586179
     9  C   -0.245663
    10  C    0.563006
    11  O   -0.476171
    12  N   -0.581783
    13  C   -0.059055
    14  C    0.563856
    15  O   -0.472932
    16  C   -0.440359
    17  S    0.007160
    18  N   -0.566813
    19  C   -0.086957
    20  C   -0.364368
    21  C    0.548225
    22  O   -0.446757
    23  N   -0.553002
    24  C   -0.255483
    25  C    0.548597
    26  O   -0.412109
    27  O   -0.620345
    28  H    0.140165
    29  H    0.158150
    30  H    0.427839
    31  H    0.140297
    32  H    0.319765
    33  H    0.300255
    34  H    0.198869
    35  H    0.175726
    36  H    0.358165
    37  H    0.197470
    38  H    0.224166
    39  H    0.180134
    40  H    0.361527
    41  H    0.227170
    42  H    0.255479
    43  H    0.201843
    44  H    0.351226
    45  H    0.191011
    46  H    0.208602
    47  H    0.351313
    48  H    0.456905
    49  Se  -0.012453
    50  Cl  -0.408980
    51  C   -0.085291
    52  C   -0.055502
    53  C   -0.041069
    54  H    0.165717
    55  H    0.228682
    56  H    0.184122
    57  H    0.187297
    58  H    0.165488
    59  H    0.179658
    60  N   -0.333650
    61  N   -0.529027
    62  N   -0.330018
    63  C   -0.084762
    64  H    0.164045
    65  H    0.165424
    66  C   -0.057582
    67  H    0.229947
    68  H    0.183250
    69  C   -0.089470
    70  H    0.163510
    71  H    0.182253
    72  N   -0.331334
 Sum of Mulliken charges =   0.00000
 Mulliken charges with hydrogens summed into heavy atoms:
               1
     1  Au   0.071506
     2  N   -0.082041
     3  C    0.032240
     4  C    0.590832
     5  O   -0.519988
     6  C    0.294363
     7  O   -0.229641
     8  N   -0.228015
     9  C    0.128932
    10  C    0.563006
    11  O   -0.476171
    12  N   -0.220256
    13  C    0.121079
    14  C    0.563856
    15  O   -0.472932
[...]
 .00000300,-0.00000096,-0.00000114,-0.00000307,0.00000294,0.00000164,0.
 00000398,-0.00000900,-0.00000220,0.00001951,0.00002038,0.00002615,-0.0
 0000714,0.00000051,0.00000254,0.00000459,-0.00000186,0.00000510,0.0000
 0654,0.00000462,-0.00001155,-0.00000107,0.00000074,-0.00001006,-0.0000
 0064,0.00000231,0.00000710,-0.00000113,0.00000065,0.00000342,0.0000005
 4,0.00000013,0.00000015,0.00000274,-0.00000317,-0.00000054,-0.00000098
 ,0.00000205,0.00000085,-0.00000188,0.00000294,-0.00000023,0.00000004,0
 .00000019,0.00000037,0.00000036,0.00000015,-0.00000010,-0.00000194,-0.
 00000114,-0.00000232,0.00000003,0.00000001,-0.00000025,-0.00000005,-0.
 00000016,-0.00000010,0.00000006,-0.00000024,0.00000011,-0.00000056,0.0
 0000023,0.00000012,0.00000071,0.00000002,0.00000097,0.00000040,-0.0000
 0087,-0.00000016,-0.00000149,0.00000062,-0.00000072,-0.00000282,-0.000
 00065,0.00000011,-0.00000171,0.00000078,0.00000140,0.00000180,-0.00000
 480,-0.00000463,-0.00000132,0.00000193,0.00000155,-0.00000042,0.000000
 04,0.00000016,0.00000053,0.00000035,0.00000004,0.00000216,-0.00000300,
 -0.00000361,-0.00000014,0.00000002,-0.00000002,0.00000031,-0.00000005,
 -0.00000003,-0.00000031,-0.00000109,-0.00000035,0.00000082,-0.00000276
 ,-0.00000019,0.00000530,-0.00004325,-0.00001105,-0.00001642,0.00003014
 ,0.00009416,-0.00062847,-0.00013977,-0.00046400,0.00158900,-0.00035788
 ,0.00053709,0.00001801,-0.00027807,0.00008675,-0.00022012,0.00007045,0
 .00014641,-0.00012112,-0.00043918,0.00008079,0.00000393,0.00009117,-0.
 00003320,0.00001411,-0.00001695,0.00005684,0.00008555,0.00004897,-0.00
 001563,0.00045363,0.00008869,0.00034903,-0.00012160,0.00067394,0.00004
 378,-0.00030280,0.00022377,0.00038927,0.00477924,0.00495249,0.00254873
 ,-0.00142183,-0.00297608,0.00128846,0.00036211,0.00004420,0.00029508,0
 .00036000,0.00108537,-0.00033046,0.00202904,0.00042274,-0.00699039,0.0
 0014637,0.00000669,0.00016682,-0.00139958,-0.00143616,-0.00038051,-0.0
 4013895,-0.03696140,-0.06482354,0.04241431,0.05108473,0.07534747,-0.00
 001909,0.00001144,-0.00012610,0.00000343,-0.00000491,-0.00000161,-0.00
 000272,0.00000143,-0.00000055,-0.00001088,0.00000688,0.00000938,0.0000
 0750,-0.00000429,-0.00000382,-0.00000449,0.00000385,0.00000193,0.00000
 564,-0.00000576,-0.00000510,0.00001029,-0.00000630,-0.00000429,-0.0000
 0292,-0.00000172,0.00000079,-0.00003206,0.00004736,0.00001638,0.000004
 52,-0.00003190,-0.00001816,0.00003569,-0.00002719,-0.00000187,-0.00000
 202,0.00001702,0.00000889,-0.00001667,-0.00000481,-0.00002011,0.000014
 45,0.00000480,0.00000914,-0.00002704,0.00000806,-0.00000577,-0.0000308
 2,-0.00010694,-0.00000783,0.00002340,-0.00000589,0.00000648,-0.0000156
 0,0.00000507,-0.00000676,-0.00001818,0.00001219,0.00000718,-0.00003519
 ,-0.00001669,0.00000619,0.00002386,0.00000720,0.00000177,0.00002464,0.
 00001257,-0.00000511,-0.00000621,-0.00000408,-0.00000697,-0.00001296,0
 .00001129,0.00000027,0.00000788,-0.00000506,-0.00000184,0.00001126,-0.
 00000896,0.00000287,0.00000077,-0.00000211,-0.00000063,0.00000039,0.00
 000024,-0.00000009,-0.00000231,0.00000438,0.00000666,-0.00000026,0.000
 00057,-0.00000017,-0.00000109,0.00000178,0.00000105,-0.00000055,0.0000
 0179,0.00000033,0.00000171,-0.00000053,-0.00000030,-0.00000133,0.00000
 063,-0.00000234,-0.00000279,0.00000157,-0.00000148,0.00000570,0.000002
 56,0.00000081,0.00000647,0.00000415,-0.00000249,0.00000378,-0.00000165
 ,-0.00000146,-0.00000980,0.00000936,0.00000239,0.00000736,-0.00000441,
 -0.00000751,-0.00000430,0.00000014,0.00000157,0.00000127,-0.00000116,0
 .00000021,-0.00001099,0.00000452,0.00000305,0.00000246,0.00000096,0.00
 000087,-0.00000135,-0.00000090,0.00000017,-0.00000115,-0.00000052,0.00
 000242,-0.00000501,0.00000588,0.00000058,-0.00000035,0.00008103,-0.000
 00896,0.00012039,0.00004459,0.00014580,-0.00665333,0.00001350,0.002716
 71,0.00152452,0.00284222,-0.00123198,0.00024430,0.00030096,0.00006452,
 0.00022720,0.00014782,0.00010404,-0.00033533,-0.00080590,0.00020837,0.
 00005612,0.00002024,0.00002327,-0.00003674,-0.00008672,0.00000187,-0.0
 0016315,0.00165975,-0.00117662,0.00028310,-0.00009707,0.00032468,0.000
 52499,-0.00046238,-0.00069218,-0.00018254,-0.00058588,-0.00005208,-0.0
 1097779,0.03089472,-0.01668148,0.00050671,0.00010449,0.00130526,0.0003
 7201,-0.00011572,0.00040413,0.00014855,0.00045822,-0.00007947,-0.00038
 846,0.00034888,-0.00078558,0.00017536,-0.00003129,-0.00014503,-0.00002
 096,-0.00003687,0.00009495,-0.05673357,0.02326832,-0.02129628,0.005093
 23,-0.01604452,0.01247702,0.06457571,-0.00008245,-0.00013712,0.0000365
 0,0.00000526,-0.00000291,-0.00000165,-0.00000397,0.00000018,0.00000086
 ,-0.00002012,-0.00000036,0.00001710,0.00001267,0.00000932,-0.00000905,
 -0.00000895,0.00000220,0.00000138,0.00001153,-0.00000164,-0.00000504,0
 .00001597,-0.00000448,-0.00000930,-0.00000625,-0.00000427,0.00000409,-
 0.00002772,0.00001275,0.00000067,0.00001869,-0.00000441,-0.00000521,0.
 00002011,-0.00000348,-0.00000412,0.00000471,0.00000269,0.00000953,-0.0
 0000937,-0.00001778,0.00000299,0.00001088,0.00001310,0.00000072,-0.000
 01383,0.00002159,-0.00001198,-0.00001514,-0.00002005,-0.00000097,0.000
 01287,0.00000635,-0.00000893,-0.00000833,-0.00000018,-0.00001437,-0.00
 000389,0.00000359,0.00001596,-0.00001072,-0.00001110,0.00002969,0.0000
 0697,0.00000632,-0.00002060,0.00000939,0.00000808,-0.00001036,-0.00000
 294,-0.00000322,-0.00000122,-0.00000319,0.00000122,0.00001120,0.000004
 00,-0.00000096,-0.00000787,0.00000180,0.00000515,-0.00000529,0.0000003
 1,-0.00000126,0.00000021,0.00000181,0.00000082,-0.00000037,-0.00000777
 ,0.00000032,0.00000591,-0.00000022,0.00000133,-0.00000149,-0.00000121,
 0.00000170,0.00000127,-0.00000092,0.00000096,0.00000048,0.00000078,0.0
 0000014,-0.00000016,0.00000022,0.00000059,-0.00000130,-0.00000227,-0.0
 0000181,-0.00000037,0.00000045,-0.00000156,-0.00000233,0.00000804,-0.0
 0000107,0.00000394,0.00000461,0.00000004,-0.00000210,-0.00001108,-0.00
 000426,0.00000142,0.00000795,-0.00000010,-0.00000249,0.00000332,-0.000
 00311,0.00000457,-0.00000068,-0.00000037,0.00000103,-0.00000807,-0.000
 00112,0.00000509,0.00000125,0.00000084,0.00000023,-0.00000154,-0.00000
 138,0.00000015,0.00000122,-0.00000191,0.00000294,-0.00000149,-0.000005
 23,0.00000075,0.00000811,0.00001653,-0.00000603,-0.00006701,0.00000820
 ,-0.00008994,0.00254947,0.00118471,-0.00155482,-0.00182950,0.00009480,
 -0.00061838,-0.00016756,-0.00008584,-0.00010604,0.00001228,0.00044963,
 -0.00010901,0.00051708,0.00082860,0.00012076,0.00002258,-0.00003485,-0
 .00005093,-0.00001125,0.00007602,0.00005525,0.00042745,-0.00034702,0.0
 0067425,0.00001938,0.00018114,-0.00030861,-0.00031656,0.00002528,0.000
 51315,0.00043060,0.00002962,0.00049752,0.00515680,-0.01209186,0.004933
 64,0.00002770,0.00022052,-0.00240852,0.00013121,0.00066690,-0.00023846
 ,0.00014658,0.00022297,-0.00009633,-0.00023387,0.00128014,-0.00127142,
 0.00036643,0.00018109,0.00014932,-0.00000051,0.00025354,0.00002972,0.0
 2933830,-0.22917465,0.12459883,0.00327146,-0.01520260,0.01166905,-0.03
 709966,0.24274908,-0.00004666,0.00012923,-0.00006259,0.00000156,-0.000
 00237,-0.00000054,-0.00000114,0.00000078,-0.00000037,-0.00000383,0.000
 00323,0.00000309,0.00000283,-0.00000302,-0.00000107,-0.00000287,0.0000
 0175,0.00000059,0.00000362,-0.00000242,-0.00000175,0.00000422,-0.00000
 270,-0.00000070,-0.00000095,-0.00000031,-0.00000042,-0.00001411,0.0000
 1940,0.00000546,0.00000326,-0.00001287,-0.00000558,0.00001434,-0.00001
 293,0.00000137,-0.00000329,0.00000758,-0.00000060,-0.00001089,0.000002
 00,-0.00001522,0.00000808,0.00000083,0.00000673,-0.00001658,-0.0000007
 7,0.00000290,-0.00002051,-0.00008508,0.00000060,0.00001433,-0.00000583
 ,0.00000614,-0.00001005,0.00000310,-0.00000136,-0.00000888,0.00001612,
 0.00000140,-0.00001666,-0.00000736,0.00000447,0.00001200,0.00000184,-0
 .00000087,0.00001161,0.00000503,-0.00000287,-0.00000300,-0.00000176,-0
 .00000349,-0.00000721,0.00000647,-0.00000037,0.00000403,-0.00000299,-0
 .00000082,0.00000599,-0.00000546,0.00000189,0.00000033,-0.00000094,-0.
 00000025,0.00000030,0.00000015,0.,-0.00000179,0.00000166,0.00000215,-0
 .00000021,0.00000013,-0.00000010,-0.00000046,0.00000078,0.00000043,-0.
 00000010,0.00000098,0.00000014,0.00000093,-0.00000034,-0.00000031,-0.0
 0000045,0.00000072,-0.00000077,-0.00000141,0.00000104,-0.00000097,0.00
 000599,0.00000237,0.00000045,0.00000245,0.00000497,-0.00000376,0.00000
 098,-0.00000059,0.00000030,-0.00000462,0.00000417,-0.00000065,0.000002
 67,-0.00000298,-0.00000534,-0.00000480,0.00000201,0.00000349,0.0000012
 7,-0.00000038,-0.00000049,-0.00000536,0.00000219,0.00000142,0.00000109
 ,0.00000044,0.00000041,-0.00000068,-0.00000027,-0.00000008,-0.00000053
 ,0.00000038,0.00000135,-0.00000257,0.00000371,0.00000021,-0.00000053,0
 .00004828,-0.00002574,0.00020223,0.00000832,0.00012752,0.00158833,-0.0
 0102511,0.00078540,0.00002276,-0.00020974,-0.00016098,0.00031564,0.000
 32477,0.00011786,0.00013843,0.00023959,-0.00008265,-0.00042023,-0.0001
 0172,0.00010156,-0.00007821,-0.00007883,0.00003587,0.00005829,0.000013
 16,0.00001645,0.00023077,-0.00031249,0.00037178,0.00000134,-0.00017156
 ,0.00010246,-0.00077497,0.00036869,0.00061955,-0.00059366,-0.00044428,
 -0.00010180,0.00060873,-0.00529558,0.00577834,0.00113815,-0.00522261,-
 0.00545130,-0.00047795,0.00167009,-0.00117613,0.00012225,-0.00002885,0
 .00022053,0.00092384,0.00312964,0.00061221,-0.00050051,-0.00107451,0.0
 0010876,0.00033723,-0.00024764,0.00032654,-0.02465409,0.11886121,-0.13
 378238,0.00215279,-0.00636052,0.00633378,0.02131826,-0.13053406,0.1527
 3503,-0.00010708,0.00610848,0.00027899,-0.00007384,0.00006999,0.000022
 98,0.00005551,-0.00001770,0.00000056,0.00024287,-0.00005939,-0.0002020
 9,-0.00016123,-0.00002391,0.00009351,0.00012074,-0.00005476,-0.0000188
 2,-0.00015412,0.00006341,0.00007019,-0.00021457,0.00009116,0.00009541,
 0.00007146,0.00004491,-0.00003323,0.00052262,-0.00053765,-0.00014312,-
 0.00019513,0.00033305,0.00018880,-0.00047513,0.00028139,0.00004417,-0.
 00007097,-0.00019423,-0.00025578,0.00022517,0.00020703,0.00014723,-0.0
 0022022,-0.00014845,-0.00009803,0.00027402,-0.00034447,0.00020239,0.00
 066185,0.00071352,0.00026619,-0.00028966,-0.00000444,-0.00000372,0.000
 20084,-0.00009246,0.00026630,0.00014442,-0.00008016,-0.00030364,0.0003
 6623,0.00024947,-0.00032006,-0.00024929,-0.00011794,0.00015982,-0.0002
 9208,-0.00017202,0.00013745,0.00008368,0.00006130,0.00007381,0.0001478
 9,-0.00011480,-0.00005724,-0.00010174,0.00005122,0.00005722,-0.0001263
 0,0.00005235,-0.00000303,-0.00000957,0.00002834,0.00000443,-0.00001644
 ,-0.00000713,0.00000338,0.00008484,-0.00003974,-0.00009468,0.00000554,
 -0.00001416,0.00001163,0.00001941,-0.00002783,-0.00001686,0.00001034,-
 0.00002758,-0.00000735,-0.00002468,0.00000584,0.00000844,0.00001275,-0
 .00001464,0.00003291,0.00004650,-0.00000227,0.00002015,-0.00008090,0.0
 0002407,-0.00000004,-0.00019036,-0.00000863,-0.00003792,-0.00010783,0.
 00001671,0.00005519,0.00017134,-0.00005032,-0.00002764,-0.00015738,0.0
 0003140,0.00007182,-0.00003396,0.00006077,-0.00002603,0.00001819,0.000
 01432,-0.00001179,0.00014938,-0.00002868,-0.00006713,-0.00003247,-0.00
 001568,-0.00000816,0.00002483,0.00001908,-0.00000231,-0.00000152,0.000
 01536,-0.00003919,0.00006038,-0.00001981,-0.00000768,-0.00031335,-0.00
 141498,-0.00014281,0.00091455,-0.00083454,0.00041507,0.00303741,-0.005
 00182,-0.00189780,0.00441942,0.00039421,-0.00247891,0.00474575,-0.0015
 1651,0.00247878,-0.00003811,0.00085623,0.00032122,-0.00030031,-0.00034
 703,0.00038829,-0.00014897,0.00042794,-0.00001565,-0.00027734,-0.00023
 918,-0.00081799,-0.00029161,-0.00010952,-0.00002850,0.00003513,0.00039
 096,0.00015888,-0.01811128,0.03947651,-0.01804932,-0.05686922,-0.02537
 695,-0.00798628,-0.01494506,0.01741665,0.03972057,-0.07379120,-0.01460
 453,-0.00276677,0.00151809,-0.00181606,-0.00167010,0.00625654,-0.01624
 336,0.01233681,-0.10195219,-0.03605183,-0.01280135,0.00106440,-0.00275
 992,0.00207530,-0.00010758,-0.00225088,-0.00404964,-0.07128619,-0.0143
 5132,-0.01256632,0.00539068,-0.00449575,-0.02034478,0.00171535,-0.0026
 1219,-0.00157117,0.30900074,0.00055877,0.00033196,0.00047450,-0.000008
 15,0.00002691,0.00001044,0.00000843,-0.00000919,0.00000503,0.00003228,
 -0.00005259,-0.00003360,-0.00002148,0.00005126,0.00001166,-0.00000201,
 -0.00001888,-0.00001570,0.00000243,0.00003326,0.00003637,-0.00003515,0
 .00003611,0.00001594,0.00000717,0.00000280,-0.00000133,0.00016368,-0.0
 0031038,-0.00011886,0.00000656,0.00021666,0.00012654,-0.00021613,0.000
 18585,0.00001310,0.00002379,-0.00012138,-0.00006109,0.00009076,-0.0000
 0990,0.00009652,-0.00007759,0.00001318,-0.00003383,0.00016141,0.000010
 31,0.00001458,0.00013823,0.00055397,0.00002891,-0.00014466,0.00004470,
 -0.00002760,0.00010015,-0.00004280,0.00005303,0.00006743,-0.00008502,-
 0.00006045,0.00013913,0.00006394,-0.00007859,-0.00010756,-0.00000136,0
 .00002897,-0.00010943,-0.00003901,0.00003926,0.00002851,0.00001538,0.0
 0003196,0.00007868,-0.00007683,-0.00000268,-0.00004100,0.00004047,0.00
 001366,-0.00006314,0.00006836,-0.00001616,-0.00000313,0.00001128,0.000
 00532,0.00000068,-0.00000018,-0.00000073,-0.00000214,-0.00002758,-0.00
 004252,0.00000173,-0.00000136,-0.00000159,0.00000368,-0.00000867,-0.00
 000575,0.00000193,-0.00000948,-0.00000033,-0.00001076,0.00000381,0.000
 00186,0.00000937,-0.00000299,0.00001495,0.00001270,-0.00001539,0.00000
 539,-0.00005638,-0.00002231,-0.00002238,-0.00002663,-0.00003214,0.0000
 2544,-0.00002123,0.00001099,0.00001092,0.00004382,-0.00007214,-0.00002
 529,-0.00002397,0.00002625,0.00004859,0.00002378,-0.00002938,-0.000031
 33,-0.00000731,0.00000515,0.00000175,0.00005512,-0.00003717,-0.0000319
 5,-0.00001015,-0.00000321,-0.00000423,0.00000652,0.00000174,-0.0000005
 1,0.00000465,-0.00001050,-0.00001257,0.00002762,-0.00005339,-0.0000042
 9,0.00016748,-0.00029148,0.00028140,-0.00162804,-0.00014332,-0.0000941
 5,-0.00128159,0.00186597,0.00554616,-0.00463086,-0.00532986,-0.0055065
 2,-0.00665668,-0.01153238,0.00097673,-0.00044506,-0.00010410,-0.000181
 58,0.00056763,0.00002234,0.00008606,0.00059006,0.00150022,-0.00059538,
 0.00023517,0.00028891,0.00024338,0.00014819,0.00002269,-0.00055675,0.0
 0037627,0.00035314,0.00108940,0.03749034,-0.02459448,0.01313180,-0.018
 19496,0.01604075,0.00265380,0.01734100,0.00391966,-0.02128310,0.011499
 40,-0.14128910,0.02307460,-0.00161906,0.00370239,0.00005017,0.00422529
 ,-0.02716835,0.01768316,-0.06429614,-0.14706982,-0.01110139,-0.0228088
 3,-0.02047071,-0.00927552,-0.00905215,-0.00838813,-0.00405179,-0.00591
 265,-0.10632349,-0.00700878,0.00309528,-0.00799724,-0.02800125,-0.0047
 6065,0.00860391,0.02637204,0.06473955,0.46372137,-0.00019425,0.0004216
 5,0.00014272,0.00000121,0.00000254,0.00000924,0.00000274,0.00000192,-0
 .00000272,0.00003278,-0.00001228,-0.00003792,-0.00001498,-0.00001010,0
 .00002255,-0.00002004,0.00000024,-0.00001535,0.00002379,0.00000543,0.0
 0003388,-0.00001928,0.00001148,0.00003115,0.00001104,0.00000966,-0.000
 01630,0.00004443,-0.00007386,-0.00004478,-0.00000491,0.00004479,0.0000
 6295,-0.00007350,0.00002218,0.00003622,0.00000286,-0.00001365,-0.00002
 296,-0.00001298,0.00002570,-0.00008275,-0.00000266,0.00000378,0.000046
 35,0.00004529,-0.00002141,0.00001734,-0.00002877,-0.00010158,0.0001046
 6,-0.00001856,-0.00003104,0.00007243,0.00000921,0.00001336,0.00002623,
 0.00002691,0.00006150,-0.00005785,-0.00005053,-0.00001153,-0.00010762,
 0.00002665,0.00001484,0.00009126,0.00002554,0.00001467,0.00003060,-0.0
 0000650,-0.00000109,-0.00001378,-0.00000569,0.00000080,-0.00004912,0.0
 0000108,0.00000861,0.00003279,0.00001380,-0.00001535,0.00002878,0.0000
 0093,0.00000201,0.00000126,-0.00000115,-0.00000118,0.00000058,-0.00000
 330,-0.00000644,-0.00003427,-0.00000041,-0.00000291,0.00000181,-0.0000
 0036,-0.00000300,-0.00000415,0.00000252,0.00000189,0.00000064,-0.00000
 021,-0.00000119,-0.00000294,0.00000066,0.00000433,0.00000569,-0.000001
 20,0.00000246,-0.00000680,0.00002134,0.00000195,0.00000122,0.00000640,
 0.00001293,-0.00001117,0.00000102,0.00000089,0.00000379,0.00002028,-0.
 00000146,-0.00003419,-0.00001019,0.00000229,-0.00000664,-0.00001252,0.
 00000544,0.00000522,0.00000272,-0.00000038,-0.00000244,0.00001203,-0.0
 0000691,-0.00002672,0.00000222,0.00000096,0.00000047,0.00000154,0.0000
 0033,-0.00000060,-0.00000587,-0.00000345,-0.00000565,-0.00000350,0.000
 00620,-0.00000446,0.00017685,0.00014583,-0.00002492,0.00084674,0.00019
 206,0.00054521,-0.00096366,0.00587208,-0.01128702,-0.00523584,-0.00691
 275,-0.00594731,0.00077510,0.00204515,0.00024242,-0.00015614,-0.000240
 43,0.00039858,-0.00032711,0.00023120,0.00003173,-0.00015734,-0.0002706
 0,-0.00020692,0.00069648,-0.00015785,-0.00008739,0.00014024,-0.0005473
 2,0.00138358,0.00049987,0.00074500,0.00092801,-0.01597097,0.01210509,0
 .01225044,-0.00532349,0.00317743,0.01173898,0.03693610,-0.02011580,-0.
 01955139,-0.02173478,0.03280944,-0.12462416,-0.00730000,0.03180683,-0.
 02324114,0.00162883,-0.00473123,0.00374768,-0.02344836,-0.01205200,-0.
 11340881,0.01422974,0.01253800,0.00679991,-0.02614026,-0.02609596,-0.0
 0841852,0.01846755,-0.01616765,-0.15712380,0.00064602,-0.00486767,-0.0
 1476045,0.00310177,-0.00588107,-0.02754628,0.02876502,-0.00401382,0.46
 794292\\0.00000011,0.00000050,0.00000065,-0.00000054,-0.00000123,-0.00
 000293,-0.00000052,-0.00000098,-0.00000240,-0.00000027,-0.00000120,-0.
 00000145,0.00000010,-0.00000127,-0.00000149,-0.00000088,-0.00000012,-0
 .00000245,-0.00000077,0.00000017,-0.00000187,0.00000015,-0.00000138,-0
 .00000129,0.00000014,-0.00000157,-0.00000159,0.00000009,-0.00000146,-0
 .00000148,-0.00000039,-0.00000048,-0.00000164,-0.00000007,-0.00000087,
 -0.00000085,0.00000063,-0.00000138,0.00000010,0.00000066,-0.00000112,0
 .00000068,0.00000095,-0.00000150,0.00000103,0.00000076,-0.00000109,0.0
 0000006,0.00000004,-0.00000086,0.00000058,0.00000018,-0.00000032,0.000
 00051,0.00000062,0.00000004,0.00000156,0.00000015,0.00000028,0.0000016
 5,0.00000055,0.00000060,0.00000157,0.00000003,0.00000114,0.00000150,0.
 00000027,0.00000027,0.00000147,0.00000056,-0.00000040,0.00000107,0.000
 00034,-0.00000032,0.00000071,0.00000006,0.00000018,0.00000012,0.000000
 12,-0.00000062,-0.00000005,-0.00000106,-0.00000004,-0.00000294,-0.0000
 0084,0.00000010,-0.00000224,-0.00000068,0.00000003,-0.00000194,-0.0000
 0043,-0.00000120,-0.00000261,-0.00000055,-0.00000107,-0.00000267,-0.00
 000036,-0.00000180,-0.00000300,-0.00000003,-0.00000181,-0.00000204,0.0
 0000040,-0.00000206,-0.00000113,0.00000041,-0.00000142,-0.00000073,0.0
 0000057,-0.00000181,-0.00000025,0.00000091,-0.00000173,0.00000073,0.00
 000069,-0.00000196,-0.00000020,-0.00000018,-0.00000048,-0.00000065,0.0
 0000065,0.00000055,0.00000229,0.00000017,0.00000080,0.00000146,0.00000
 085,-0.00000047,0.00000179,0.00000023,-0.00000005,0.00000026,0.0000007
 9,-0.00000053,0.00000154,0.00000076,-0.00000072,0.00000112,0.00000019,
 0.00000078,0.00000139,0.00000036,-0.00000105,-0.00000041,0.00000162,-0
 .00000004,0.00000219,0.00000019,0.00000111,0.00000263,-0.00000079,0.00
 000158,-0.00000033,-0.00000042,0.00000181,0.00000059,-0.00000015,0.000
 00051,0.00000018,-0.00000096,0.00000184,-0.00000057,-0.00000037,0.0000
 0204,0.00000113,-0.00000023,0.00000039,-0.00000020,0.00000016,0.000000
 03,0.00000035,-0.00000087,0.00000147,-0.00000074,-0.00000057,0.0000015
 7,0.00000021,-0.00000040,0.00000082,-0.00000006,-0.00000004,0.00000099
 ,0.00000088,-0.00000066,0.00000207,0.00000035,-0.00000034,0.00000107,0
 .00000046,0.,0.00000051,0.00000056,-0.00000046,0.00000130,0.00000018,0
 .00000003,0.00000116,0.00000138,0.00000008,0.00000146,0.00000187,0.000
 00030,0.00000061,0.00000154,-0.00000062,0.00000223,0.00000083,-0.00000
 077,0.00000244,0.00000061,-0.00000054,0.00000250,0.00000132,-0.0000001
 4,0.00000148,0.00000109\\\@


 MY GROUP MEETINGS AREN'T VERY STRUCTURED.
     -- PROF. M. S. GORDON, OCT. 5, 1984
 Job cpu time:       0 days  9 hours 30 minutes 49.8 seconds.
 File lengths (MBytes):  RWF=   3814 Int=      0 D2E=      0 Chk=     38 Scr=      1
 Normal termination of Gaussian 09 at Wed May 17 14:51:24 2023.
