 Entering Gaussian System, Link 0=g09
 Input=AF61-helio.com
 Output=AF61-helio.log
 Initial command:
 /home/scr/programs/g09/l1.exe "/home/scr/guest2/Gau-6346.inp" -scrdir="/home/scr/guest2/"
 Entering Link 1 = /home/scr/programs/g09/l1.exe PID=      6347.
  
 Copyright (c) 1988,1990,1992,1993,1995,1998,2003,2009,2013,
            Gaussian, Inc.  All Rights Reserved.
  
 This is part of the Gaussian(R) 09 program.  It is based on
 the Gaussian(R) 03 system (copyright 2003, Gaussian, Inc.),
 the Gaussian(R) 98 system (copyright 1998, Gaussian, Inc.),
 the Gaussian(R) 94 system (copyright 1995, Gaussian, Inc.),
 the Gaussian 92(TM) system (copyright 1992, Gaussian, Inc.),
 the Gaussian 90(TM) system (copyright 1990, Gaussian, Inc.),
 the Gaussian 88(TM) system (copyright 1988, Gaussian, Inc.),
 the Gaussian 86(TM) system (copyright 1986, Carnegie Mellon
 University), and the Gaussian 82(TM) system (copyright 1983,
 Carnegie Mellon University). Gaussian is a federally registered
 trademark of Gaussian, Inc.
  
 This software contains proprietary and confidential information,
 including trade secrets, belonging to Gaussian, Inc.
  
 This software is provided under written license and may be
 used, copied, transmitted, or stored only in accord with that
 written license.
  
 The following legend is applicable only to US Government
 contracts under FAR:
  
                    RESTRICTED RIGHTS LEGEND
  
 Use, reproduction and disclosure by the US Government is
 subject to restrictions as set forth in subparagraphs (a)
 and (c) of the Commercial Computer Software - Restricted
 Rights clause in FAR 52.227-19.
  
 Gaussian, Inc.
 340 Quinnipiac St., Bldg. 40, Wallingford CT 06492
  
  
 ---------------------------------------------------------------
 Warning -- This program may not be used in any manner that
 competes with the business of Gaussian, Inc. or will provide
 assistance to any competitor of Gaussian, Inc.  The licensee
 of this program is prohibited from giving any competitor of
 Gaussian, Inc. access to this program.  By using this program,
 the user acknowledges that Gaussian, Inc. is engaged in the
 business of creating and licensing software in the field of
 computational chemistry and represents and warrants to the
 licensee that it is not a competitor of Gaussian, Inc. and that
 it will not use this program in any manner prohibited above.
 ---------------------------------------------------------------
  

 Cite this work as:
 Gaussian 09, Revision D.01,
 M. J. Frisch, G. W. Trucks, H. B. Schlegel, G. E. Scuseria, 
 M. A. Robb, J. R. Cheeseman, G. Scalmani, V. Barone, B. Mennucci, 
 G. A. Petersson, H. Nakatsuji, M. Caricato, X. Li, H. P. Hratchian, 
 A. F. Izmaylov, J. Bloino, G. Zheng, J. L. Sonnenberg, M. Hada, 
 M. Ehara, K. Toyota, R. Fukuda, J. Hasegawa, M. Ishida, T. Nakajima, 
 Y. Honda, O. Kitao, H. Nakai, T. Vreven, J. A. Montgomery, Jr., 
 J. E. Peralta, F. Ogliaro, M. Bearpark, J. J. Heyd, E. Brothers, 
 K. N. Kudin, V. N. Staroverov, T. Keith, R. Kobayashi, J. Normand, 
 K. Raghavachari, A. Rendell, J. C. Burant, S. S. Iyengar, J. Tomasi, 
 M. Cossi, N. Rega, J. M. Millam, M. Klene, J. E. Knox, J. B. Cross, 
 V. Bakken, C. Adamo, J. Jaramillo, R. Gomperts, R. E. Stratmann, 
 O. Yazyev, A. J. Austin, R. Cammi, C. Pomelli, J. W. Ochterski, 
 R. L. Martin, K. Morokuma, V. G. Zakrzewski, G. A. Voth, 
 P. Salvador, J. J. Dannenberg, S. Dapprich, A. D. Daniels, 
 O. Farkas, J. B. Foresman, J. V. Ortiz, J. Cioslowski, 
 and D. J. Fox, Gaussian, Inc., Wallingford CT, 2013.
 
 ******************************************
 Gaussian 09:  EM64L-G09RevD.01 24-Apr-2013
                18-May-2023 
 ******************************************
 %mem=30000MB
 %nprocshared=8
 Will use up to    8 processors via shared memory.
 ----------------------------------------
 # opt freq=noraman b3lyp/gen pseudo=read
 ----------------------------------------
 1/14=-1,18=20,19=15,26=3,38=1/1,3;
 2/9=110,12=2,17=6,18=5,40=1/2;
 3/5=7,11=2,16=1,17=8,25=1,30=1,71=1,74=-5/1,2,3;
 4//1;
 5/5=2,38=5/2;
 6/7=2,8=2,9=2,10=2,28=1/1;
 7//1,2,3,16;
 1/14=-1,18=20,19=15,26=3/3(2);
 2/9=110/2;
 99//99;
 2/9=110/2;
 3/5=7,6=1,11=2,16=1,17=8,25=1,30=1,71=1,74=-5,82=7/1,2,3;
 4/5=5,16=3,69=1/1;
 5/5=2,38=5/2;
 7//1,2,3,16;
 1/14=-1,18=20,19=15,26=3/3(-5);
 2/9=110/2;
 6/7=2,8=2,9=2,10=2,19=2,28=1/1;
 99/9=1/99;
 --
 af
 --
 Symbolic Z-matrix:
 Charge =  0 Multiplicity = 1
 C                     3.1935    1.17629   0.70815 
 C                     1.27541  -0.02762   1.39807 
 C                     1.27329   1.22404  -0.67619 
 H                     4.288     1.18063   0.70975 
 H                     0.89761  -0.92956   1.88827 
 H                     0.89389   2.09909  -0.14057 
 H                     0.89391   1.23622  -1.70205 
 H                     2.83611   2.06246   1.2434 
 H                     0.89558   0.85377   1.92279 
 N                     2.71826   1.22457  -0.67624 
 N                     0.72585  -0.00092   0.00012 
 N                     2.72028  -0.0263    1.39653 
 C                     3.19368   0.02738  -1.37285 
 H                     2.83676   0.0468   -2.40804 
 H                     4.28815   0.02804  -1.37691 
 C                     1.27504  -1.19819  -0.72251 
 H                     0.89671  -2.09362  -0.22087 
 H                     0.89547  -1.17168  -1.74806 
 C                     3.19576  -1.20067   0.66214 
 H                     4.29025  -1.20273   0.66306 
 H                     2.84051  -2.10751   1.16313 
 N                     2.72006  -1.19656  -0.72292 
 Au                   -1.36028  -0.00047   0.00134 
 Cl                   -3.64249   0.00132  -0.00372 
 

 GradGradGradGradGradGradGradGradGradGradGradGradGradGradGradGradGradGrad
 Berny optimization.
 Initialization pass.
                           ----------------------------
                           !    Initial Parameters    !
                           ! (Angstroms and Degrees)  !
 --------------------------                            --------------------------
 ! Name  Definition              Value          Derivative Info.                !
 --------------------------------------------------------------------------------
 ! R1    R(1,4)                  1.0945         estimate D2E/DX2                !
 ! R2    R(1,8)                  1.0952         estimate D2E/DX2                !
 ! R3    R(1,10)                 1.4645         estimate D2E/DX2                !
 ! R4    R(1,12)                 1.4642         estimate D2E/DX2                !
 ! R5    R(2,5)                  1.0939         estimate D2E/DX2                !
 ! R6    R(2,9)                  1.0938         estimate D2E/DX2                !
 ! R7    R(2,11)                 1.5023         estimate D2E/DX2                !
 ! R8    R(2,12)                 1.4449         estimate D2E/DX2                !
 ! R9    R(3,6)                  1.0939         estimate D2E/DX2                !
 ! R10   R(3,7)                  1.0938         estimate D2E/DX2                !
 ! R11   R(3,10)                 1.445          estimate D2E/DX2                !
 ! R12   R(3,11)                 1.5025         estimate D2E/DX2                !
 ! R13   R(10,13)                1.4644         estimate D2E/DX2                !
 ! R14   R(11,16)                1.5024         estimate D2E/DX2                !
 ! R15   R(11,23)                2.0861         estimate D2E/DX2                !
 ! R16   R(12,19)                1.4644         estimate D2E/DX2                !
 ! R17   R(13,14)                1.0952         estimate D2E/DX2                !
 ! R18   R(13,15)                1.0945         estimate D2E/DX2                !
 ! R19   R(13,22)                1.4645         estimate D2E/DX2                !
 ! R20   R(16,17)                1.0939         estimate D2E/DX2                !
 ! R21   R(16,18)                1.0939         estimate D2E/DX2                !
 ! R22   R(16,22)                1.445          estimate D2E/DX2                !
 ! R23   R(19,20)                1.0945         estimate D2E/DX2                !
 ! R24   R(19,21)                1.0952         estimate D2E/DX2                !
 ! R25   R(19,22)                1.4645         estimate D2E/DX2                !
 ! R26   R(23,24)                2.2822         estimate D2E/DX2                !
 ! A1    A(4,1,8)              108.8079         estimate D2E/DX2                !
 ! A2    A(4,1,10)             109.0119         estimate D2E/DX2                !
 ! A3    A(4,1,12)             109.0108         estimate D2E/DX2                !
 ! A4    A(8,1,10)             109.2333         estimate D2E/DX2                !
 ! A5    A(8,1,12)             109.2272         estimate D2E/DX2                !
 ! A6    A(10,1,12)            111.5065         estimate D2E/DX2                !
 ! A7    A(5,2,9)              109.2383         estimate D2E/DX2                !
 ! A8    A(5,2,11)             107.7768         estimate D2E/DX2                !
 ! A9    A(5,2,12)             110.2809         estimate D2E/DX2                !
 ! A10   A(9,2,11)             107.76           estimate D2E/DX2                !
 ! A11   A(9,2,12)             110.3057         estimate D2E/DX2                !
 ! A12   A(11,2,12)            111.3949         estimate D2E/DX2                !
 ! A13   A(6,3,7)              109.2705         estimate D2E/DX2                !
 ! A14   A(6,3,10)             110.2773         estimate D2E/DX2                !
 ! A15   A(6,3,11)             107.7823         estimate D2E/DX2                !
 ! A16   A(7,3,10)             110.2919         estimate D2E/DX2                !
 ! A17   A(7,3,11)             107.7492         estimate D2E/DX2                !
 ! A18   A(10,3,11)            111.3866         estimate D2E/DX2                !
 ! A19   A(1,10,3)             108.9335         estimate D2E/DX2                !
 ! A20   A(1,10,13)            108.5037         estimate D2E/DX2                !
 ! A21   A(3,10,13)            108.927          estimate D2E/DX2                !
 ! A22   A(2,11,3)             107.4606         estimate D2E/DX2                !
 ! A23   A(2,11,16)            107.4382         estimate D2E/DX2                !
 ! A24   A(2,11,23)            111.4237         estimate D2E/DX2                !
 ! A25   A(3,11,16)            107.4579         estimate D2E/DX2                !
 ! A26   A(3,11,23)            111.3727         estimate D2E/DX2                !
 ! A27   A(16,11,23)           111.4688         estimate D2E/DX2                !
 ! A28   A(1,12,2)             108.9318         estimate D2E/DX2                !
 ! A29   A(1,12,19)            108.538          estimate D2E/DX2                !
 ! A30   A(2,12,19)            108.9344         estimate D2E/DX2                !
 ! A31   A(10,13,14)           109.2284         estimate D2E/DX2                !
 ! A32   A(10,13,15)           109.0211         estimate D2E/DX2                !
 ! A33   A(10,13,22)           111.5388         estimate D2E/DX2                !
 ! A34   A(14,13,15)           108.8073         estimate D2E/DX2                !
 ! A35   A(14,13,22)           109.2025         estimate D2E/DX2                !
 ! A36   A(15,13,22)           108.999          estimate D2E/DX2                !
 ! A37   A(11,16,17)           107.7783         estimate D2E/DX2                !
 ! A38   A(11,16,18)           107.745          estimate D2E/DX2                !
 ! A39   A(11,16,22)           111.394          estimate D2E/DX2                !
 ! A40   A(17,16,18)           109.2544         estimate D2E/DX2                !
 ! A41   A(17,16,22)           110.2991         estimate D2E/DX2                !
 ! A42   A(18,16,22)           110.286          estimate D2E/DX2                !
 ! A43   A(12,19,20)           109.0123         estimate D2E/DX2                !
 ! A44   A(12,19,21)           109.225          estimate D2E/DX2                !
 ! A45   A(12,19,22)           111.5045         estimate D2E/DX2                !
 ! A46   A(20,19,21)           108.8084         estimate D2E/DX2                !
 ! A47   A(20,19,22)           109.0037         estimate D2E/DX2                !
 ! A48   A(21,19,22)           109.2437         estimate D2E/DX2                !
 ! A49   A(13,22,16)           108.9334         estimate D2E/DX2                !
 ! A50   A(13,22,19)           108.4828         estimate D2E/DX2                !
 ! A51   A(16,22,19)           108.9383         estimate D2E/DX2                !
 ! A52   L(11,23,24,6,-1)      179.9566         estimate D2E/DX2                !
 ! A53   L(11,23,24,6,-2)      179.7684         estimate D2E/DX2                !
 ! D1    D(4,1,10,3)          -179.7793         estimate D2E/DX2                !
 ! D2    D(4,1,10,13)           61.7694         estimate D2E/DX2                !
 ! D3    D(8,1,10,3)           -61.0045         estimate D2E/DX2                !
 ! D4    D(8,1,10,13)         -179.4558         estimate D2E/DX2                !
 ! D5    D(12,1,10,3)           59.8165         estimate D2E/DX2                !
 ! D6    D(12,1,10,13)         -58.6348         estimate D2E/DX2                !
 ! D7    D(4,1,12,2)           179.7752         estimate D2E/DX2                !
 ! D8    D(4,1,12,19)          -61.746          estimate D2E/DX2                !
 ! D9    D(8,1,12,2)            61.0046         estimate D2E/DX2                !
 ! D10   D(8,1,12,19)          179.4834         estimate D2E/DX2                !
 ! D11   D(10,1,12,2)          -59.82           estimate D2E/DX2                !
 ! D12   D(10,1,12,19)          58.6588         estimate D2E/DX2                !
 ! D13   D(5,2,11,3)          -178.7693         estimate D2E/DX2                !
 ! D14   D(5,2,11,16)          -63.4002         estimate D2E/DX2                !
 ! D15   D(5,2,11,23)           58.9674         estimate D2E/DX2                !
 ! D16   D(9,2,11,3)            63.4539         estimate D2E/DX2                !
 ! D17   D(9,2,11,16)          178.8231         estimate D2E/DX2                !
 ! D18   D(9,2,11,23)          -58.8093         estimate D2E/DX2                !
 ! D19   D(12,2,11,3)          -57.6676         estimate D2E/DX2                !
 ! D20   D(12,2,11,16)          57.7016         estimate D2E/DX2                !
 ! D21   D(12,2,11,23)        -179.9308         estimate D2E/DX2                !
 ! D22   D(5,2,12,1)           178.7351         estimate D2E/DX2                !
 ! D23   D(5,2,12,19)           60.5054         estimate D2E/DX2                !
 ! D24   D(9,2,12,1)           -60.5152         estimate D2E/DX2                !
 ! D25   D(9,2,12,19)         -178.7449         estimate D2E/DX2                !
 ! D26   D(11,2,12,1)           59.1075         estimate D2E/DX2                !
 ! D27   D(11,2,12,19)         -59.1221         estimate D2E/DX2                !
 ! D28   D(6,3,10,1)            60.538          estimate D2E/DX2                !
 ! D29   D(6,3,10,13)          178.7231         estimate D2E/DX2                !
 ! D30   D(7,3,10,1)          -178.6834         estimate D2E/DX2                !
 ! D31   D(7,3,10,13)          -60.4983         estimate D2E/DX2                !
 ! D32   D(11,3,10,1)          -59.0887         estimate D2E/DX2                !
 ! D33   D(11,3,10,13)          59.0964         estimate D2E/DX2                !
 ! D34   D(6,3,11,2)           -63.438          estimate D2E/DX2                !
 ! D35   D(6,3,11,16)         -178.7941         estimate D2E/DX2                !
 ! D36   D(6,3,11,23)           58.8568         estimate D2E/DX2                !
 ! D37   D(7,3,11,2)           178.7501         estimate D2E/DX2                !
 ! D38   D(7,3,11,16)           63.3941         estimate D2E/DX2                !
 ! D39   D(7,3,11,23)          -58.955          estimate D2E/DX2                !
 ! D40   D(10,3,11,2)           57.6578         estimate D2E/DX2                !
 ! D41   D(10,3,11,16)         -57.6982         estimate D2E/DX2                !
 ! D42   D(10,3,11,23)         179.9527         estimate D2E/DX2                !
 ! D43   D(1,10,13,14)         179.4789         estimate D2E/DX2                !
 ! D44   D(1,10,13,15)         -61.7446         estimate D2E/DX2                !
 ! D45   D(1,10,13,22)          58.6712         estimate D2E/DX2                !
 ! D46   D(3,10,13,14)          61.0234         estimate D2E/DX2                !
 ! D47   D(3,10,13,15)         179.8            estimate D2E/DX2                !
 ! D48   D(3,10,13,22)         -59.7842         estimate D2E/DX2                !
 ! D49   D(2,11,16,17)          63.4375         estimate D2E/DX2                !
 ! D50   D(2,11,16,18)        -178.774          estimate D2E/DX2                !
 ! D51   D(2,11,16,22)         -57.6872         estimate D2E/DX2                !
 ! D52   D(3,11,16,17)         178.8084         estimate D2E/DX2                !
 ! D53   D(3,11,16,18)         -63.4031         estimate D2E/DX2                !
 ! D54   D(3,11,16,22)          57.6837         estimate D2E/DX2                !
 ! D55   D(23,11,16,17)        -58.9021         estimate D2E/DX2                !
 ! D56   D(23,11,16,18)         58.8864         estimate D2E/DX2                !
 ! D57   D(23,11,16,22)        179.9732         estimate D2E/DX2                !
 ! D58   D(1,12,19,20)          61.7112         estimate D2E/DX2                !
 ! D59   D(1,12,19,21)        -179.518          estimate D2E/DX2                !
 ! D60   D(1,12,19,22)         -58.683          estimate D2E/DX2                !
 ! D61   D(2,12,19,20)        -179.8116         estimate D2E/DX2                !
 ! D62   D(2,12,19,21)         -61.0408         estimate D2E/DX2                !
 ! D63   D(2,12,19,22)          59.7942         estimate D2E/DX2                !
 ! D64   D(10,13,22,16)         59.7693         estimate D2E/DX2                !
 ! D65   D(10,13,22,19)        -58.6835         estimate D2E/DX2                !
 ! D66   D(14,13,22,16)        -61.0534         estimate D2E/DX2                !
 ! D67   D(14,13,22,19)       -179.5062         estimate D2E/DX2                !
 ! D68   D(15,13,22,16)       -179.8019         estimate D2E/DX2                !
 ! D69   D(15,13,22,19)         61.7453         estimate D2E/DX2                !
 ! D70   D(11,16,22,13)        -59.0692         estimate D2E/DX2                !
 ! D71   D(11,16,22,19)         59.0972         estimate D2E/DX2                !
 ! D72   D(17,16,22,13)       -178.71           estimate D2E/DX2                !
 ! D73   D(17,16,22,19)        -60.5436         estimate D2E/DX2                !
 ! D74   D(18,16,22,13)         60.5212         estimate D2E/DX2                !
 ! D75   D(18,16,22,19)        178.6876         estimate D2E/DX2                !
 ! D76   D(12,19,22,13)         58.6668         estimate D2E/DX2                !
 ! D77   D(12,19,22,16)        -59.783          estimate D2E/DX2                !
 ! D78   D(20,19,22,13)        -61.7325         estimate D2E/DX2                !
 ! D79   D(20,19,22,16)        179.8177         estimate D2E/DX2                !
 ! D80   D(21,19,22,13)        179.4909         estimate D2E/DX2                !
 ! D81   D(21,19,22,16)         61.0411         estimate D2E/DX2                !
 --------------------------------------------------------------------------------
 Trust Radius=3.00D-01 FncErr=1.00D-07 GrdErr=1.00D-06
 Number of steps in this run=    144 maximum allowed number of steps=    144.
 GradGradGradGradGradGradGradGradGradGradGradGradGradGradGradGradGradGrad

                          Input orientation:                          
 ---------------------------------------------------------------------
 Center     Atomic      Atomic             Coordinates (Angstroms)
 Number     Number       Type             X           Y           Z
 ---------------------------------------------------------------------
      1          6           0        3.193503    1.176292    0.708150
      2          6           0        1.275412   -0.027622    1.398069
      3          6           0        1.273293    1.224041   -0.676194
      4          1           0        4.287999    1.180625    0.709753
      5          1           0        0.897608   -0.929561    1.888265
      6          1           0        0.893893    2.099088   -0.140569
      7          1           0        0.893912    1.236220   -1.702053
      8          1           0        2.836112    2.062459    1.243400
      9          1           0        0.895575    0.853765    1.922785
     10          7           0        2.718256    1.224572   -0.676241
     11          7           0        0.725851   -0.000921    0.000116
     12          7           0        2.720277   -0.026296    1.396525
     13          6           0        3.193682    0.027380   -1.372852
     14          1           0        2.836761    0.046799   -2.408038
     15          1           0        4.288146    0.028043   -1.376914
     16          6           0        1.275044   -1.198191   -0.722505
     17          1           0        0.896707   -2.093624   -0.220874
     18          1           0        0.895470   -1.171681   -1.748059
     19          6           0        3.195756   -1.200669    0.662136
     20          1           0        4.290249   -1.202732    0.663063
     21          1           0        2.840511   -2.107511    1.163132
     22          7           0        2.720061   -1.196563   -0.722919
     23         79           0       -1.360278   -0.000471    0.001343
     24         17           0       -3.642487    0.001315   -0.003717
 ---------------------------------------------------------------------
                    Distance matrix (angstroms):
                    1          2          3          4          5
     1  C    0.000000
     2  C    2.367376   0.000000
     3  C    2.367677   2.422650   0.000000
     4  H    1.094506   3.318030   3.318311   0.000000
     5  H    3.331429   1.093856   3.369806   4.163715   0.000000
     6  H    2.619176   2.652519   1.093867   3.617537   3.645394
     7  H    3.331785   3.369510   1.093830   4.164100   4.192971
     8  H    1.095223   2.613072   2.613463   1.780558   3.622959
     9  H    2.619129   1.093822   2.652257   3.617572   1.783661
    10  N    1.464489   2.820027   1.444963   2.094518   3.812052
    11  N    2.824261   1.502332   1.502538   3.819494   2.111156
    12  N    1.464248   1.444866   2.820154   2.094294   2.092802
    13  C    2.377092   3.370577   2.367535   2.620066   4.101533
    14  H    3.333714   4.114584   2.613353   3.621087   4.813711
    15  H    2.619964   4.096364   3.318246   2.383826   4.803556
    16  C    3.371265   2.422203   2.422675   4.097319   2.651554
    17  H    4.102525   2.651935   3.369872   4.804959   2.409048
    18  H    4.102060   3.369176   2.651628   4.804522   3.644376
    19  C    2.377407   2.367564   3.371381   2.620272   2.618850
    20  H    2.620046   3.318186   4.096933   2.383815   3.617424
    21  H    3.333913   2.613555   4.115645   3.621134   2.385007
    22  N    2.811147   2.819933   2.820398   3.187789   3.195451
    23  Au   4.756182   2.983026   2.982312   5.813765   3.085730
    24  Cl   6.972667   5.113861   5.110008   8.049374   5.005855
                    6          7          8          9         10
     6  H    0.000000
     7  H    1.784033   0.000000
     8  H    2.385147   3.623604   0.000000
     9  H    2.410034   3.644959   2.384992   0.000000
    10  N    2.092850   2.093002   2.097848   3.196029   0.000000
    11  N    2.111414   2.110958   3.202576   2.110912   2.434948
    12  N    3.196184   3.811921   2.097561   2.093082   2.420957
    13  C    3.331595   2.618895   3.333793   4.101881   1.464433
    14  H    3.623264   2.384911   4.170837   4.814086   2.097692
    15  H    4.163980   3.617490   3.621229   4.804099   2.094559
    16  C    3.369863   2.651628   4.115040   3.369285   2.820422
    17  H    4.193482   3.644415   4.814397   3.644500   3.812588
    18  H    3.644442   2.408341   4.813998   4.192556   3.195837
    19  C    4.102597   4.101988   3.333949   3.331781   2.810881
    20  H    4.804485   4.803891   3.621157   4.164119   3.186958
    21  H    4.815022   4.814465   4.170745   3.623397   3.808020
    22  N    3.812524   3.195615   3.808031   3.812131   2.421586
    23  Au   3.083760   3.084207   4.838189   3.083915   4.312110
    24  Cl   4.999812   4.998825   6.912008   5.003208   6.512119
                   11         12         13         14         15
    11  N    0.000000
    12  N    2.434818   0.000000
    13  C    2.824187   2.810061   0.000000
    14  H    3.202721   3.807048   1.095162   0.000000
    15  H    3.819293   3.186398   1.094472   1.780474   0.000000
    16  C    1.502415   2.819987   2.367730   2.613423   3.318235
    17  H    2.111264   3.196128   3.331937   3.623383   4.164103
    18  H    2.110821   3.811855   2.619219   2.385137   3.617642
    19  C    2.824552   1.464431   2.376822   3.333320   2.619308
    20  H    3.819526   2.094464   2.619272   3.620168   2.382502
    21  H    3.203454   2.097709   3.333722   4.170650   3.620507
    22  N    2.434998   2.421067   1.464502   2.097426   2.094340
    23  Au   2.086129   4.312555   4.756862   4.839678   5.814215
    24  Cl   4.368340   6.515075   6.971974   6.911113   8.048685
                   16         17         18         19         20
    16  C    0.000000
    17  H    1.093880   0.000000
    18  H    1.093865   1.783893   0.000000
    19  C    2.367778   2.619676   3.331846   0.000000
    20  H    3.318325   3.618171   4.164012   1.094495   0.000000
    21  H    2.614035   2.386219   3.624085   1.095244   1.780571
    22  N    1.445018   2.093176   2.093003   1.464473   2.094391
    23  Au   2.983858   3.086203   3.085537   4.757580   5.814788
    24  Cl   5.112493   5.004019   5.001170   6.974933   8.051250
                   21         22         23         24
    21  H    0.000000
    22  N    2.097981   0.000000
    23  Au   4.841074   4.313277   0.000000
    24  Cl   6.916498   6.514152   2.282215   0.000000
 Stoichiometry    C6H12AuClN4
 Framework group  C1[X(C6H12AuClN4)]
 Deg. of freedom    66
 Full point group                 C1      NOp   1
 Largest Abelian subgroup         C1      NOp   1
 Largest concise Abelian subgroup C1      NOp   1
                         Standard orientation:                         
 ---------------------------------------------------------------------
 Center     Atomic      Atomic             Coordinates (Angstroms)
 Number     Number       Type             X           Y           Z
 ---------------------------------------------------------------------
      1          6           0        3.193503    1.176292    0.708150
      2          6           0        1.275412   -0.027622    1.398069
      3          6           0        1.273293    1.224041   -0.676194
      4          1           0        4.287999    1.180625    0.709753
      5          1           0        0.897608   -0.929561    1.888265
      6          1           0        0.893893    2.099088   -0.140569
      7          1           0        0.893912    1.236220   -1.702053
      8          1           0        2.836112    2.062459    1.243400
      9          1           0        0.895575    0.853765    1.922785
     10          7           0        2.718256    1.224572   -0.676241
     11          7           0        0.725851   -0.000921    0.000116
     12          7           0        2.720277   -0.026296    1.396525
     13          6           0        3.193682    0.027380   -1.372852
     14          1           0        2.836761    0.046799   -2.408038
     15          1           0        4.288146    0.028043   -1.376914
     16          6           0        1.275044   -1.198191   -0.722505
     17          1           0        0.896707   -2.093624   -0.220874
     18          1           0        0.895470   -1.171681   -1.748059
     19          6           0        3.195756   -1.200669    0.662136
     20          1           0        4.290249   -1.202732    0.663063
     21          1           0        2.840511   -2.107511    1.163132
     22          7           0        2.720061   -1.196563   -0.722919
     23         79           0       -1.360278   -0.000471    0.001343
     24         17           0       -3.642487    0.001315   -0.003717
 ---------------------------------------------------------------------
 Rotational constants (GHZ):      1.8693377      0.2849256      0.2849170
 General basis read from cards:  (5D, 7F)
 ======================================================================================================
                                       Pseudopotential Parameters
 ======================================================================================================
  Center     Atomic      Valence      Angular      Power
  Number     Number     Electrons     Momentum     of R      Exponent        Coefficient   SO-Coeffient
 ======================================================================================================
    1          6
                                   No pseudopotential on this center.
    2          6
                                   No pseudopotential on this center.
    3          6
                                   No pseudopotential on this center.
    4          1
                                   No pseudopotential on this center.
    5          1
                                   No pseudopotential on this center.
    6          1
                                   No pseudopotential on this center.
    7          1
                                   No pseudopotential on this center.
    8          1
                                   No pseudopotential on this center.
    9          1
                                   No pseudopotential on this center.
   10          7
                                   No pseudopotential on this center.
   11          7
                                   No pseudopotential on this center.
   12          7
                                   No pseudopotential on this center.
   13          6
                                   No pseudopotential on this center.
   14          1
                                   No pseudopotential on this center.
   15          1
                                   No pseudopotential on this center.
   16          6
                                   No pseudopotential on this center.
   17          1
                                   No pseudopotential on this center.
   18          1
                                   No pseudopotential on this center.
   19          6
                                   No pseudopotential on this center.
   20          1
                                   No pseudopotential on this center.
   21          1
                                   No pseudopotential on this center.
   22          7
                                   No pseudopotential on this center.
   23         79           19
                                      G and up 
                                                     1      622.6287956      -60.00000000    0.00000000
                                                     2      136.2843607     -555.52923120    0.00000000
                                                     2       33.1549781     -168.00197850    0.00000000
                                                     2        9.9894895      -63.03998750    0.00000000
                                                     2        3.0481312       -4.25166810    0.00000000
                                      S - G
                                                     0      194.7374304        3.00000000    0.00000000
                                                     1      351.5327447       38.60208800    0.00000000
                                                     2      122.3270402      864.83707270    0.00000000
                                                     2       32.0914617      374.99355200    0.00000000
                                                     2        5.2451812      289.79101000    0.00000000
                                                     2        4.4916223     -152.45327730    0.00000000
                                      P - G
                                                     0      420.6158801        2.00000000    0.00000000
                                                     1      109.4417815       73.88856250    0.00000000
                                                     2       34.1714280      326.67298720    0.00000000
                                                     2        5.9879750      126.58145910    0.00000000
                                      D - G
                                                     0      219.2666158        3.00000000    0.00000000
                                                     1      122.7297786       55.67931490    0.00000000
                                                     2       63.1063369      449.19873350    0.00000000
                                                     2       18.3684520      215.02690910    0.00000000
                                                     2        4.4972844       64.08409950    0.00000000
                                      F - G
                                                     0      108.5506037        4.00000000    0.00000000
                                                     1       56.4795527       51.80653350    0.00000000
                                                     2       29.2069159      231.21831130    0.00000000
                                                     2        9.5440543      119.00473860    0.00000000
                                                     2        2.8965118       15.34241880    0.00000000
   24         17
                                   No pseudopotential on this center.
 ======================================================================================================
 There are   241 symmetry adapted cartesian basis functions of A   symmetry.
 There are   224 symmetry adapted basis functions of A   symmetry.
   224 basis functions,   428 primitive gaussians,   241 cartesian basis functions
    56 alpha electrons       56 beta electrons
       nuclear repulsion energy      1031.4322183257 Hartrees.
 NAtoms=   24 NActive=   24 NUniq=   24 SFac= 1.00D+00 NAtFMM=   60 NAOKFM=F Big=F
 Integral buffers will be    131072 words long.
 Raffenetti 2 integral format.
 Two-electron integral symmetry is turned on.
 One-electron integrals computed using PRISM.
   1 Symmetry operations used in ECPInt.
 ECPInt:  NShTT=    3486 NPrTT=   18204 LenC2=    3361 LenP2D=   12192.
 LDataN:  DoStor=T MaxTD1= 7 Len=  274
 NBasis=   224 RedAO= T EigKep=  4.64D-03  NBF=   224
 NBsUse=   224 1.00D-06 EigRej= -1.00D+00 NBFU=   224
 Defaulting to unpruned grid for atomic number  79.
 ExpMin= 2.79D-02 ExpMax= 2.52D+04 ExpMxC= 3.78D+03 IAcc=3 IRadAn=         5 AccDes= 0.00D+00
 Harris functional with IExCor=  402 and IRadAn=       5 diagonalized for initial guess.
 HarFok:  IExCor=  402 AccDes= 0.00D+00 IRadAn=         5 IDoV= 1 UseB2=F ITyADJ=14
 ICtDFT=  3500011 ScaDFX=  1.000000  1.000000  1.000000  1.000000
 Defaulting to unpruned grid for atomic number  79.
 Defaulting to unpruned grid for atomic number  79.
 Defaulting to unpruned grid for atomic number  79.
 Defaulting to unpruned grid for atomic number  79.
 Defaulting to unpruned grid for atomic number  79.
 Defaulting to unpruned grid for atomic number  79.
 Defaulting to unpruned grid for atomic number  79.
 Defaulting to unpruned grid for atomic number  79.
 FoFCou: FMM=F IPFlag=           0 FMFlag=      100000 FMFlg1=           0
         NFxFlg=           0 DoJE=T BraDBF=F KetDBF=T FulRan=T
         wScrn=  0.000000 ICntrl=     500 IOpCl=  0 I1Cent=   200000004 NGrid=           0
         NMat0=    1 NMatS0=      1 NMatT0=    0 NMatD0=    1 NMtDS0=    0 NMtDT0=    0
 Petite list used in FoFCou.
 Keep R1 ints in memory in canonical form, NReq=324815245.
 Requested convergence on RMS density matrix=1.00D-08 within 128 cycles.
 Requested convergence on MAX density matrix=1.00D-06.
 Requested convergence on             energy=1.00D-06.
 No special actions if energy rises.
 Defaulting to unpruned grid for atomic number  79.
 Defaulting to unpruned grid for atomic number  79.
 Defaulting to unpruned grid for atomic number  79.
 Defaulting to unpruned grid for atomic number  79.
 Defaulting to unpruned grid for atomic number  79.
 Defaulting to unpruned grid for atomic number  79.
 Defaulting to unpruned grid for atomic number  79.
 Defaulting to unpruned grid for atomic number  79.
 SCF Done:  E(RB3LYP) =  -1050.56136423     A.U. after   12 cycles
            NFock= 12  Conv=0.57D-08     -V/T= 2.1004

 **********************************************************************

            Population analysis using the SCF density.

 **********************************************************************

 Orbital symmetries:
       Occupied  (A) (A) (A) (A) (A) (A) (A) (A) (A) (A) (A) (A)
                 (A) (A) (A) (A) (A) (A) (A) (A) (A) (A) (A) (A)
                 (A) (A) (A) (A) (A) (A) (A) (A) (A) (A) (A) (A)
                 (A) (A) (A) (A) (A) (A) (A) (A) (A) (A) (A) (A)
                 (A) (A) (A) (A) (A) (A) (A) (A)
       Virtual   (A) (A) (A) (A) (A) (A) (A) (A) (A) (A) (A) (A)
                 (A) (A) (A) (A) (A) (A) (A) (A) (A) (A) (A) (A)
                 (A) (A) (A) (A) (A) (A) (A) (A) (A) (A) (A) (A)
                 (A) (A) (A) (A) (A) (A) (A) (A) (A) (A) (A) (A)
                 (A) (A) (A) (A) (A) (A) (A) (A) (A) (A) (A) (A)
                 (A) (A) (A) (A) (A) (A) (A) (A) (A) (A) (A) (A)
                 (A) (A) (A) (A) (A) (A) (A) (A) (A) (A) (A) (A)
                 (A) (A) (A) (A) (A) (A) (A) (A) (A) (A) (A) (A)
                 (A) (A) (A) (A) (A) (A) (A) (A) (A) (A) (A) (A)
                 (A) (A) (A) (A) (A) (A) (A) (A) (A) (A) (A) (A)
                 (A) (A) (A) (A) (A) (A) (A) (A) (A) (A) (A) (A)
                 (A) (A) (A) (A) (A) (A) (A) (A) (A) (A) (A) (A)
                 (A) (A) (A) (A) (A) (A) (A) (A) (A) (A) (A) (A)
                 (A) (A) (A) (A) (A) (A) (A) (A) (A) (A) (A) (A)
 The electronic state is 1-A.
 Alpha  occ. eigenvalues -- -101.45694 -14.42217 -14.36244 -14.36242 -14.36232
 Alpha  occ. eigenvalues --  -10.27497 -10.27496 -10.27491 -10.26489 -10.26487
 Alpha  occ. eigenvalues --  -10.26482  -9.38796  -7.14876  -7.14260  -7.14260
 Alpha  occ. eigenvalues --   -4.16064  -2.30814  -2.28604  -2.28604  -1.06616
 Alpha  occ. eigenvalues --   -0.95260  -0.94277  -0.94277  -0.75096  -0.75093
 Alpha  occ. eigenvalues --   -0.74186  -0.70465  -0.69409  -0.69407  -0.60780
 Alpha  occ. eigenvalues --   -0.53385  -0.53384  -0.53206  -0.52275  -0.52274
 Alpha  occ. eigenvalues --   -0.51583  -0.47674  -0.43199  -0.43198  -0.42191
 Alpha  occ. eigenvalues --   -0.42183  -0.42136  -0.40418  -0.40331  -0.40329
 Alpha  occ. eigenvalues --   -0.35656  -0.33167  -0.33166  -0.29706  -0.29702
 Alpha  occ. eigenvalues --   -0.29521  -0.26266  -0.25781  -0.25775  -0.24037
 Alpha  occ. eigenvalues --   -0.24036
 Alpha virt. eigenvalues --   -0.00872  -0.00069  -0.00066   0.03144   0.06761
 Alpha virt. eigenvalues --    0.08239   0.08266   0.08268   0.08964   0.08967
 Alpha virt. eigenvalues --    0.12222   0.13412   0.13414   0.14326   0.14331
 Alpha virt. eigenvalues --    0.14469   0.15406   0.15412   0.15590   0.18275
 Alpha virt. eigenvalues --    0.18279   0.18714   0.19360   0.19362   0.23673
 Alpha virt. eigenvalues --    0.23675   0.24481   0.26188   0.26356   0.26362
 Alpha virt. eigenvalues --    0.28987   0.36877   0.37573   0.37581   0.43524
 Alpha virt. eigenvalues --    0.43538   0.46492   0.47978   0.47984   0.50826
 Alpha virt. eigenvalues --    0.51494   0.53413   0.53415   0.54736   0.54738
 Alpha virt. eigenvalues --    0.56481   0.56657   0.56664   0.62456   0.62664
 Alpha virt. eigenvalues --    0.62680   0.63191   0.66936   0.73140   0.73144
 Alpha virt. eigenvalues --    0.73699   0.77028   0.77860   0.78012   0.78018
 Alpha virt. eigenvalues --    0.78417   0.78420   0.78792   0.83272   0.83287
 Alpha virt. eigenvalues --    0.85434   0.87283   0.87289   0.87568   0.89926
 Alpha virt. eigenvalues --    0.91095   0.91097   0.91636   0.91642   0.93942
 Alpha virt. eigenvalues --    0.93944   0.94908   0.94914   0.97700   1.04370
 Alpha virt. eigenvalues --    1.05572   1.05593   1.11037   1.12476   1.12489
 Alpha virt. eigenvalues --    1.15612   1.26228   1.26232   1.28387   1.28403
 Alpha virt. eigenvalues --    1.28423   1.30137   1.36951   1.36961   1.42058
 Alpha virt. eigenvalues --    1.44579   1.44608   1.45109   1.61700   1.61703
 Alpha virt. eigenvalues --    1.61751   1.64851   1.77559   1.77570   1.83526
 Alpha virt. eigenvalues --    1.83540   1.84345   1.86068   1.86070   1.88378
 Alpha virt. eigenvalues --    1.89524   1.90273   1.90279   1.92685   1.92700
 Alpha virt. eigenvalues --    1.93057   1.98853   1.98872   2.00117   2.00121
 Alpha virt. eigenvalues --    2.01181   2.01188   2.03130   2.03132   2.03308
 Alpha virt. eigenvalues --    2.03330   2.03863   2.06291   2.06303   2.10741
 Alpha virt. eigenvalues --    2.13804   2.13812   2.15417   2.15424   2.17522
 Alpha virt. eigenvalues --    2.20476   2.20671   2.24028   2.27012   2.27035
 Alpha virt. eigenvalues --    2.29029   2.29047   2.36946   2.36960   2.38858
 Alpha virt. eigenvalues --    2.39734   2.39740   2.43576   2.44965   2.58661
 Alpha virt. eigenvalues --    2.58664   2.66409   2.68568   2.68578   2.68849
 Alpha virt. eigenvalues --    2.73972   2.74673   2.74691   2.77992   2.77998
 Alpha virt. eigenvalues --    2.81964   2.82994   2.83004   2.92257  15.59856
 Alpha virt. eigenvalues --   15.59857  15.76856  43.06848
          Condensed to atoms (all electrons):
               1          2          3          4          5          6
     1  C    4.910805  -0.049866  -0.049751   0.383304   0.004682  -0.003396
     2  C   -0.049866   4.938205  -0.044054   0.005135   0.390028  -0.002123
     3  C   -0.049751  -0.044054   4.938210   0.005131   0.003530   0.390028
     4  H    0.383304   0.005135   0.005131   0.552090  -0.000195   0.000052
     5  H    0.004682   0.390028   0.003530  -0.000195   0.520657   0.000014
     6  H   -0.003396  -0.002123   0.390028   0.000052   0.000014   0.520493
     7  H    0.004678   0.003531   0.390027  -0.000195  -0.000177  -0.023211
     8  H    0.383589  -0.003016  -0.003013  -0.023995   0.000011   0.005885
     9  H   -0.003397   0.390044  -0.002128   0.000053  -0.023238   0.004742
    10  N    0.321713  -0.014715   0.337329  -0.045239  -0.000792  -0.041655
    11  N   -0.013462   0.223595   0.223601  -0.000654  -0.044843  -0.044809
    12  N    0.321736   0.337392  -0.014748  -0.045255  -0.041660  -0.001330
    13  C   -0.053090   0.000828  -0.049792  -0.003460   0.000009   0.004680
    14  H    0.004651  -0.000065  -0.003017   0.000032  -0.000009   0.000011
    15  H   -0.003446   0.000019   0.005133   0.005966  -0.000006  -0.000195
    16  C    0.000838  -0.044090  -0.044046   0.000019  -0.002133   0.003527
    17  H    0.000008  -0.002131   0.003529  -0.000006   0.004753  -0.000176
    18  H    0.000009   0.003537  -0.002127  -0.000006   0.000015   0.000015
    19  C   -0.053099  -0.049800   0.000837  -0.003463  -0.003392   0.000008
    20  H   -0.003451   0.005131   0.000019   0.005971   0.000052  -0.000006
    21  H    0.004646  -0.003021  -0.000065   0.000032   0.005888  -0.000008
    22  N   -0.016504  -0.014705  -0.014702  -0.001785  -0.001335  -0.000790
    23  Au  -0.000447  -0.019879  -0.020000  -0.000330  -0.005499  -0.005512
    24  Cl   0.000000   0.000141   0.000141   0.000000  -0.000059  -0.000060
               7          8          9         10         11         12
     1  C    0.004678   0.383589  -0.003397   0.321713  -0.013462   0.321736
     2  C    0.003531  -0.003016   0.390044  -0.014715   0.223595   0.337392
     3  C    0.390027  -0.003013  -0.002128   0.337329   0.223601  -0.014748
     4  H   -0.000195  -0.023995   0.000053  -0.045239  -0.000654  -0.045255
     5  H   -0.000177   0.000011  -0.023238  -0.000792  -0.044843  -0.041660
     6  H   -0.023211   0.005885   0.004742  -0.041655  -0.044809  -0.001330
     7  H    0.520556   0.000011   0.000014  -0.041630  -0.044872  -0.000793
     8  H    0.000011   0.551998   0.005888  -0.045622  -0.002249  -0.045626
     9  H    0.000014   0.005888   0.520576  -0.001333  -0.044869  -0.041615
    10  N   -0.041630  -0.045622  -0.001333   6.851225  -0.053822  -0.071297
    11  N   -0.044872  -0.002249  -0.044869  -0.053822   7.290600  -0.053789
    12  N   -0.000793  -0.045626  -0.041615  -0.071297  -0.053789   6.851485
    13  C   -0.003395   0.004650   0.000008   0.321665  -0.013447  -0.016540
    14  H    0.005891  -0.000218  -0.000009  -0.045620  -0.002250  -0.000866
    15  H    0.000052   0.000032  -0.000006  -0.045243  -0.000655  -0.001791
    16  C   -0.002125  -0.000065   0.003535  -0.014688   0.223640  -0.014728
    17  H    0.000014  -0.000008   0.000015  -0.000791  -0.044810  -0.001329
    18  H    0.004763  -0.000009  -0.000177  -0.001332  -0.044886  -0.000792
    19  C    0.000008   0.004648   0.004677  -0.016499  -0.013441   0.321692
    20  H   -0.000006   0.000032  -0.000195  -0.001788  -0.000654  -0.045232
    21  H   -0.000009  -0.000218   0.000011  -0.000864  -0.002244  -0.045620
    22  N   -0.001334  -0.000865  -0.000791  -0.071195  -0.053773  -0.071270
    23  Au  -0.005511  -0.000124  -0.005507   0.005385   0.076540   0.005364
    24  Cl  -0.000060   0.000000  -0.000060   0.000000  -0.002202   0.000000
              13         14         15         16         17         18
     1  C   -0.053090   0.004651  -0.003446   0.000838   0.000008   0.000009
     2  C    0.000828  -0.000065   0.000019  -0.044090  -0.002131   0.003537
     3  C   -0.049792  -0.003017   0.005133  -0.044046   0.003529  -0.002127
     4  H   -0.003460   0.000032   0.005966   0.000019  -0.000006  -0.000006
     5  H    0.000009  -0.000009  -0.000006  -0.002133   0.004753   0.000015
     6  H    0.004680   0.000011  -0.000195   0.003527  -0.000176   0.000015
     7  H   -0.003395   0.005891   0.000052  -0.002125   0.000014   0.004763
     8  H    0.004650  -0.000218   0.000032  -0.000065  -0.000008  -0.000009
     9  H    0.000008  -0.000009  -0.000006   0.003535   0.000015  -0.000177
    10  N    0.321665  -0.045620  -0.045243  -0.014688  -0.000791  -0.001332
    11  N   -0.013447  -0.002250  -0.000655   0.223640  -0.044810  -0.044886
    12  N   -0.016540  -0.000866  -0.001791  -0.014728  -0.001329  -0.000792
    13  C    4.911160   0.383594   0.383308  -0.049787   0.004677  -0.003399
    14  H    0.383594   0.551996  -0.023982  -0.003010   0.000010   0.005890
    15  H    0.383308  -0.023982   0.552037   0.005135  -0.000195   0.000052
    16  C   -0.049787  -0.003010   0.005135   4.938039   0.389997   0.390012
    17  H    0.004677   0.000010  -0.000195   0.389997   0.520558  -0.023235
    18  H   -0.003399   0.005890   0.000052   0.390012  -0.023235   0.520653
    19  C   -0.053139   0.004656  -0.003459  -0.049741  -0.003395   0.004679
    20  H   -0.003466   0.000033   0.005980   0.005133   0.000052  -0.000195
    21  H    0.004653  -0.000218   0.000032  -0.003014   0.005876   0.000010
    22  N    0.321621  -0.045656  -0.045268   0.337374  -0.041608  -0.041633
    23  Au  -0.000444  -0.000127  -0.000329  -0.019969  -0.005475  -0.005475
    24  Cl   0.000000   0.000000   0.000000   0.000140  -0.000060  -0.000060
              19         20         21         22         23         24
     1  C   -0.053099  -0.003451   0.004646  -0.016504  -0.000447   0.000000
     2  C   -0.049800   0.005131  -0.003021  -0.014705  -0.019879   0.000141
     3  C    0.000837   0.000019  -0.000065  -0.014702  -0.020000   0.000141
     4  H   -0.003463   0.005971   0.000032  -0.001785  -0.000330   0.000000
     5  H   -0.003392   0.000052   0.005888  -0.001335  -0.005499  -0.000059
     6  H    0.000008  -0.000006  -0.000008  -0.000790  -0.005512  -0.000060
     7  H    0.000008  -0.000006  -0.000009  -0.001334  -0.005511  -0.000060
     8  H    0.004648   0.000032  -0.000218  -0.000865  -0.000124   0.000000
     9  H    0.004677  -0.000195   0.000011  -0.000791  -0.005507  -0.000060
    10  N   -0.016499  -0.001788  -0.000864  -0.071195   0.005385   0.000000
    11  N   -0.013441  -0.000654  -0.002244  -0.053773   0.076540  -0.002202
    12  N    0.321692  -0.045232  -0.045620  -0.071270   0.005364   0.000000
    13  C   -0.053139  -0.003466   0.004653   0.321621  -0.000444   0.000000
    14  H    0.004656   0.000033  -0.000218  -0.045656  -0.000127   0.000000
    15  H   -0.003459   0.005980   0.000032  -0.045268  -0.000329   0.000000
    16  C   -0.049741   0.005133  -0.003014   0.337374  -0.019969   0.000140
    17  H   -0.003395   0.000052   0.005876  -0.041608  -0.005475  -0.000060
    18  H    0.004679  -0.000195   0.000010  -0.041633  -0.005475  -0.000060
    19  C    4.910720   0.383291   0.383580   0.321718  -0.000442   0.000000
    20  H    0.383291   0.552100  -0.024005  -0.045242  -0.000329   0.000000
    21  H    0.383580  -0.024005   0.552021  -0.045610  -0.000124   0.000000
    22  N    0.321718  -0.045242  -0.045610   6.851303   0.005364   0.000000
    23  Au  -0.000442  -0.000329  -0.000124   0.005364  18.599579   0.278011
    24  Cl   0.000000   0.000000   0.000000   0.000000   0.278011  17.068520
 Mulliken charges:
               1
     1  C   -0.090749
     2  C   -0.050122
     3  C   -0.050073
     4  H    0.166799
     5  H    0.193698
     6  H    0.193816
     7  H    0.193772
     8  H    0.168284
     9  H    0.193763
    10  N   -0.323189
    11  N   -0.556244
    12  N   -0.323390
    13  C   -0.090893
    14  H    0.168283
    15  H    0.166828
    16  C   -0.049991
    17  H    0.193732
    18  H    0.193692
    19  C   -0.090643
    20  H    0.166777
    21  H    0.168271
    22  N   -0.323311
    23  Au   0.125282
    24  Cl  -0.344393
 Sum of Mulliken charges =   0.00000
 Mulliken charges with hydrogens summed into heavy atoms:
               1
     1  C    0.244334
     2  C    0.337340
     3  C    0.337515
    10  N   -0.323189
    11  N   -0.556244
    12  N   -0.323390
    13  C    0.244219
    16  C    0.337433
    19  C    0.244405
    22  N   -0.323311
    23  Au   0.125282
    24  Cl  -0.344393
 Electronic spatial extent (au):  <R**2>=           3355.6482
 Charge=              0.0000 electrons
 Dipole moment (field-independent basis, Debye):
    X=              9.2038    Y=             -0.0021    Z=              0.0054  Tot=              9.2038
 Quadrupole moment (field-independent basis, Debye-Ang):
   XX=           -112.2340   YY=            -95.4573   ZZ=            -95.4592
   XY=              0.0062   XZ=             -0.0146   YZ=             -0.0005
 Traceless Quadrupole moment (field-independent basis, Debye-Ang):
   XX=            -11.1838   YY=              5.5929   ZZ=              5.5909
   XY=              0.0062   XZ=             -0.0146   YZ=             -0.0005
 Octapole moment (field-independent basis, Debye-Ang**2):
  XXX=            -43.6020  YYY=             -0.7301  ZZZ=            -11.2476  XYY=            -54.3622
  XXY=             -0.0195  XXZ=              0.1033  XZZ=            -54.3770  YZZ=              0.6366
  YYZ=             11.4775  XYZ=             -0.0083
 Hexadecapole moment (field-independent basis, Debye-Ang**3):
 XXXX=          -3623.4563 YYYY=           -474.3649 ZZZZ=           -474.2062 XXXY=              0.2708
 XXXZ=             -0.4187 YYYX=             -1.9521 YYYZ=              0.0234 ZZZX=            -34.6550
 ZZZY=             -0.0135 XXYY=           -706.8577 XXZZ=           -706.9098 YYZZ=           -158.1287
 XXYZ=             -0.0446 YYXZ=             34.4533 ZZXY=              2.0052
 N-N= 1.031432218326D+03 E-N=-4.494548902236D+03  KE= 9.546783855879D+02
   1 Symmetry operations used in ECPInt.
 ECPInt:  NShTT=    3486 NPrTT=   18204 LenC2=    3361 LenP2D=   12192.
 LDataN:  DoStor=T MaxTD1= 8 Len=  415
 Calling FoFJK, ICntrl=      2127 FMM=F ISym2X=0 I1Cent= 0 IOpClX= 0 NMat=1 NMatS=1 NMatT=0.
 Defaulting to unpruned grid for atomic number  79.
 Defaulting to unpruned grid for atomic number  79.
 Defaulting to unpruned grid for atomic number  79.
 Defaulting to unpruned grid for atomic number  79.
 Defaulting to unpruned grid for atomic number  79.
 Defaulting to unpruned grid for atomic number  79.
 Defaulting to unpruned grid for atomic number  79.
 Defaulting to unpruned grid for atomic number  79.
 ***** Axes restored to original set *****
 -------------------------------------------------------------------
 Center     Atomic                   Forces (Hartrees/Bohr)
 Number     Number              X              Y              Z
 -------------------------------------------------------------------
      1        6           0.003737931    0.004155279    0.002529331
      2        6          -0.001638615   -0.000095033    0.007096283
      3        6          -0.001721492    0.006185901   -0.003519395
      4        1           0.000124350    0.000739634    0.000455440
      5        1          -0.000541410    0.000768469    0.000522975
      6        1          -0.000411385    0.000051547   -0.000927699
      7        1          -0.000492371    0.000881986    0.000438551
      8        1           0.000651152    0.000308537    0.000146513
      9        1          -0.000478519   -0.000758784    0.000541104
     10        7           0.002616569    0.006549934   -0.003738677
     11        7          -0.007665150    0.000001656    0.000235051
     12        7           0.003008257   -0.000154940    0.007971606
     13        6           0.003591136    0.000015165   -0.004812167
     14        1           0.000640507    0.000034303   -0.000401230
     15        1           0.000183081    0.000032772   -0.000904691
     16        6          -0.001851173   -0.006073760   -0.003822973
     17        1          -0.000346066   -0.000016453   -0.000906555
     18        1          -0.000448844   -0.000910710    0.000401111
     19        6           0.003724451   -0.004197832    0.002372229
     20        1           0.000131396   -0.000743164    0.000422600
     21        1           0.000627175   -0.000288956    0.000106197
     22        7           0.002655623   -0.006450505   -0.004124565
     23       79          -0.008667778   -0.000027495   -0.000158268
     24       17           0.002571174   -0.000007549    0.000077228
 -------------------------------------------------------------------
 Cartesian Forces:  Max     0.008667778 RMS     0.002947733

 GradGradGradGradGradGradGradGradGradGradGradGradGradGradGradGradGradGrad
 Berny optimization.
 FormGI is forming the generalized inverse of G from B-inverse, IUseBI=4.
 Internal  Forces:  Max     0.009265283 RMS     0.002217265
 Search for a local minimum.
 Step number   1 out of a maximum of  144
 All quantities printed in internal units (Hartrees-Bohrs-Radians)
 Mixed Optimization -- RFO/linear search
 Second derivative matrix not updated -- first step.
 ITU=  0
     Eigenvalues ---    0.00230   0.00230   0.01409   0.01410   0.01504
     Eigenvalues ---    0.01815   0.01816   0.01913   0.05017   0.05022
     Eigenvalues ---    0.05275   0.05342   0.05344   0.05640   0.05699
     Eigenvalues ---    0.05699   0.05958   0.06516   0.06518   0.06997
     Eigenvalues ---    0.06999   0.07457   0.07803   0.07806   0.08375
     Eigenvalues ---    0.08857   0.09032   0.09035   0.09232   0.09233
     Eigenvalues ---    0.09366   0.09454   0.09828   0.09829   0.09833
     Eigenvalues ---    0.10255   0.10362   0.10364   0.15414   0.15417
     Eigenvalues ---    0.15780   0.21863   0.28309   0.29231   0.29238
     Eigenvalues ---    0.30782   0.30784   0.33231   0.34066   0.34072
     Eigenvalues ---    0.34214   0.34216   0.34223   0.34297   0.34298
     Eigenvalues ---    0.34301   0.34368   0.34370   0.34370   0.34371
     Eigenvalues ---    0.34374   0.34375   0.35368   0.35660   0.35665
     Eigenvalues ---    0.38914
 RFO step:  Lambda=-2.49531016D-03 EMin= 2.30000000D-03
 Linear search not attempted -- first point.
 Iteration  1 RMS(Cart)=  0.01334724 RMS(Int)=  0.00004616
 Iteration  2 RMS(Cart)=  0.00005848 RMS(Int)=  0.00001093
 Iteration  3 RMS(Cart)=  0.00000001 RMS(Int)=  0.00001093
 Variable       Old X    -DE/DX   Delta X   Delta X   Delta X     New X
                                 (Linear)    (Quad)   (Total)
    R1        2.06832   0.00012   0.00000   0.00036   0.00036   2.06867
    R2        2.06967   0.00011   0.00000   0.00033   0.00033   2.07000
    R3        2.76748   0.00741   0.00000   0.01974   0.01973   2.78721
    R4        2.76703   0.00725   0.00000   0.01944   0.01943   2.78646
    R5        2.06709  -0.00021   0.00000  -0.00061  -0.00061   2.06648
    R6        2.06702  -0.00018   0.00000  -0.00053  -0.00053   2.06649
    R7        2.83900   0.00927   0.00000   0.02966   0.02968   2.86868
    R8        2.73040   0.00732   0.00000   0.01893   0.01893   2.74934
    R9        2.06711  -0.00027   0.00000  -0.00079  -0.00079   2.06632
   R10        2.06704  -0.00023   0.00000  -0.00066  -0.00066   2.06638
   R11        2.73058   0.00718   0.00000   0.01825   0.01825   2.74883
   R12        2.83938   0.00916   0.00000   0.02928   0.02930   2.86869
   R13        2.76738   0.00723   0.00000   0.01909   0.01907   2.78645
   R14        2.83915   0.00921   0.00000   0.02951   0.02953   2.86869
   R15        3.94221   0.00610   0.00000   0.03803   0.03803   3.98025
   R16        2.76737   0.00728   0.00000   0.01953   0.01952   2.78689
   R17        2.06956   0.00016   0.00000   0.00046   0.00046   2.07002
   R18        2.06825   0.00020   0.00000   0.00056   0.00056   2.06882
   R19        2.76751   0.00716   0.00000   0.01895   0.01893   2.78644
   R20        2.06713  -0.00029   0.00000  -0.00082  -0.00082   2.06631
   R21        2.06710  -0.00024   0.00000  -0.00070  -0.00070   2.06641
   R22        2.73069   0.00718   0.00000   0.01821   0.01821   2.74889
   R23        2.06830   0.00013   0.00000   0.00037   0.00037   2.06867
   R24        2.06971   0.00009   0.00000   0.00026   0.00026   2.06997
   R25        2.76745   0.00743   0.00000   0.01980   0.01979   2.78724
   R26        4.31276  -0.00257   0.00000  -0.01163  -0.01163   4.30113
    A1        1.89906  -0.00052   0.00000  -0.00795  -0.00795   1.89111
    A2        1.90262   0.00003   0.00000   0.00189   0.00188   1.90450
    A3        1.90260   0.00000   0.00000   0.00161   0.00161   1.90421
    A4        1.90648   0.00003   0.00000   0.00054   0.00053   1.90701
    A5        1.90637   0.00007   0.00000   0.00091   0.00091   1.90728
    A6        1.94616   0.00036   0.00000   0.00271   0.00269   1.94885
    A7        1.90657  -0.00063   0.00000  -0.01038  -0.01037   1.89620
    A8        1.88106   0.00007   0.00000   0.00031   0.00029   1.88135
    A9        1.92476   0.00021   0.00000   0.00264   0.00262   1.92738
   A10        1.88077   0.00015   0.00000   0.00093   0.00091   1.88168
   A11        1.92520   0.00017   0.00000   0.00213   0.00211   1.92731
   A12        1.94421   0.00002   0.00000   0.00397   0.00399   1.94820
   A13        1.90713  -0.00063   0.00000  -0.01016  -0.01016   1.89697
   A14        1.92470   0.00015   0.00000   0.00160   0.00158   1.92629
   A15        1.88116   0.00014   0.00000   0.00087   0.00085   1.88201
   A16        1.92496   0.00016   0.00000   0.00245   0.00243   1.92739
   A17        1.88058   0.00017   0.00000   0.00148   0.00146   1.88203
   A18        1.94406   0.00000   0.00000   0.00342   0.00344   1.94751
   A19        1.90125   0.00018   0.00000  -0.00010  -0.00011   1.90114
   A20        1.89375  -0.00029   0.00000  -0.00063  -0.00062   1.89312
   A21        1.90114   0.00014   0.00000  -0.00019  -0.00019   1.90094
   A22        1.87554  -0.00036   0.00000  -0.00488  -0.00490   1.87064
   A23        1.87515  -0.00031   0.00000  -0.00429  -0.00432   1.87083
   A24        1.94471   0.00037   0.00000   0.00525   0.00526   1.94997
   A25        1.87549  -0.00041   0.00000  -0.00485  -0.00487   1.87062
   A26        1.94382   0.00035   0.00000   0.00424   0.00424   1.94806
   A27        1.94550   0.00029   0.00000   0.00362   0.00362   1.94912
   A28        1.90122   0.00012   0.00000  -0.00083  -0.00084   1.90038
   A29        1.89435  -0.00037   0.00000  -0.00186  -0.00185   1.89250
   A30        1.90126   0.00011   0.00000  -0.00061  -0.00061   1.90065
   A31        1.90640   0.00005   0.00000   0.00091   0.00090   1.90730
   A32        1.90278   0.00000   0.00000   0.00173   0.00173   1.90451
   A33        1.94672   0.00036   0.00000   0.00191   0.00189   1.94861
   A34        1.89905  -0.00054   0.00000  -0.00802  -0.00802   1.89102
   A35        1.90594   0.00008   0.00000   0.00125   0.00125   1.90719
   A36        1.90239   0.00003   0.00000   0.00194   0.00194   1.90433
   A37        1.88109   0.00016   0.00000   0.00096   0.00095   1.88203
   A38        1.88050   0.00020   0.00000   0.00182   0.00180   1.88230
   A39        1.94419  -0.00002   0.00000   0.00350   0.00352   1.94772
   A40        1.90685  -0.00061   0.00000  -0.00989  -0.00988   1.89697
   A41        1.92508   0.00012   0.00000   0.00103   0.00102   1.92610
   A42        1.92485   0.00013   0.00000   0.00227   0.00225   1.92710
   A43        1.90262  -0.00002   0.00000   0.00149   0.00149   1.90411
   A44        1.90634   0.00006   0.00000   0.00078   0.00078   1.90711
   A45        1.94612   0.00042   0.00000   0.00319   0.00318   1.94930
   A46        1.89906  -0.00050   0.00000  -0.00780  -0.00780   1.89127
   A47        1.90247   0.00002   0.00000   0.00184   0.00183   1.90431
   A48        1.90666  -0.00001   0.00000   0.00020   0.00020   1.90686
   A49        1.90125   0.00017   0.00000  -0.00004  -0.00005   1.90120
   A50        1.89338  -0.00033   0.00000  -0.00086  -0.00085   1.89253
   A51        1.90133   0.00015   0.00000  -0.00060  -0.00061   1.90072
   A52        3.14084   0.00002   0.00000   0.00516   0.00516   3.14600
   A53        3.13755   0.00011   0.00000   0.02247   0.02247   3.16002
    D1       -3.13774   0.00038   0.00000   0.00549   0.00549  -3.13225
    D2        1.07808   0.00028   0.00000   0.00614   0.00614   1.08422
    D3       -1.06473  -0.00021   0.00000  -0.00270  -0.00271  -1.06744
    D4       -3.13209  -0.00031   0.00000  -0.00206  -0.00206  -3.13415
    D5        1.04400   0.00013   0.00000   0.00053   0.00053   1.04452
    D6       -1.02337   0.00003   0.00000   0.00118   0.00117  -1.02220
    D7        3.13767  -0.00035   0.00000  -0.00510  -0.00510   3.13257
    D8       -1.07767  -0.00036   0.00000  -0.00737  -0.00737  -1.08504
    D9        1.06473   0.00024   0.00000   0.00303   0.00303   1.06777
   D10        3.13258   0.00023   0.00000   0.00077   0.00077   3.13334
   D11       -1.04406  -0.00008   0.00000   0.00001   0.00002  -1.04403
   D12        1.02379  -0.00009   0.00000  -0.00225  -0.00224   1.02155
   D13       -3.12011   0.00008   0.00000  -0.00130  -0.00132  -3.12143
   D14       -1.10654  -0.00073   0.00000  -0.01148  -0.01147  -1.11801
   D15        1.02918  -0.00034   0.00000  -0.00658  -0.00658   1.02260
   D16        1.10748   0.00071   0.00000   0.01025   0.01024   1.11772
   D17        3.12105  -0.00010   0.00000   0.00007   0.00009   3.12114
   D18       -1.02642   0.00029   0.00000   0.00497   0.00498  -1.02144
   D19       -1.00649   0.00039   0.00000   0.00459   0.00457  -1.00191
   D20        1.00708  -0.00042   0.00000  -0.00559  -0.00558   1.00151
   D21       -3.14039  -0.00003   0.00000  -0.00069  -0.00069  -3.14108
   D22        3.11952   0.00010   0.00000   0.00377   0.00378   3.12330
   D23        1.05602   0.00042   0.00000   0.00683   0.00684   1.06286
   D24       -1.05619  -0.00044   0.00000  -0.00609  -0.00609  -1.06228
   D25       -3.11969  -0.00012   0.00000  -0.00303  -0.00304  -3.12273
   D26        1.03162  -0.00013   0.00000  -0.00094  -0.00093   1.03069
   D27       -1.03188   0.00019   0.00000   0.00213   0.00212  -1.02975
   D28        1.05659   0.00037   0.00000   0.00507   0.00507   1.06166
   D29        3.11931   0.00021   0.00000   0.00415   0.00416   3.12346
   D30       -3.11861  -0.00021   0.00000  -0.00498  -0.00500  -3.12361
   D31       -1.05589  -0.00038   0.00000  -0.00591  -0.00592  -1.06181
   D32       -1.03129   0.00010   0.00000   0.00071   0.00070  -1.03059
   D33        1.03143  -0.00006   0.00000  -0.00022  -0.00022   1.03121
   D34       -1.10720  -0.00066   0.00000  -0.00944  -0.00943  -1.11663
   D35       -3.12054   0.00009   0.00000   0.00037   0.00035  -3.12019
   D36        1.02725  -0.00022   0.00000  -0.00353  -0.00353   1.02371
   D37        3.11978  -0.00008   0.00000   0.00127   0.00129   3.12107
   D38        1.10644   0.00067   0.00000   0.01108   0.01107   1.11751
   D39       -1.02896   0.00036   0.00000   0.00718   0.00719  -1.02177
   D40        1.00632  -0.00038   0.00000  -0.00481  -0.00479   1.00153
   D41       -1.00702   0.00036   0.00000   0.00500   0.00499  -1.00204
   D42        3.14077   0.00005   0.00000   0.00110   0.00110  -3.14132
   D43        3.13250   0.00034   0.00000   0.00178   0.00177   3.13427
   D44       -1.07765  -0.00029   0.00000  -0.00638  -0.00639  -1.08403
   D45        1.02401  -0.00002   0.00000  -0.00162  -0.00161   1.02239
   D46        1.06506   0.00021   0.00000   0.00236   0.00237   1.06743
   D47        3.13810  -0.00041   0.00000  -0.00580  -0.00580   3.13231
   D48       -1.04343  -0.00015   0.00000  -0.00103  -0.00102  -1.04445
   D49        1.10719   0.00063   0.00000   0.00900   0.00899   1.11618
   D50       -3.12019   0.00010   0.00000  -0.00116  -0.00118  -3.12137
   D51       -1.00683   0.00039   0.00000   0.00496   0.00495  -1.00188
   D52        3.12079  -0.00014   0.00000  -0.00120  -0.00118   3.11962
   D53       -1.10659  -0.00067   0.00000  -0.01136  -0.01135  -1.11794
   D54        1.00677  -0.00039   0.00000  -0.00524  -0.00522   1.00155
   D55       -1.02804   0.00020   0.00000   0.00309   0.00309  -1.02495
   D56        1.02776  -0.00033   0.00000  -0.00708  -0.00708   1.02068
   D57        3.14113  -0.00004   0.00000  -0.00095  -0.00095   3.14017
   D58        1.07706   0.00035   0.00000   0.00758   0.00758   1.08465
   D59       -3.13318  -0.00023   0.00000  -0.00053  -0.00053  -3.13371
   D60       -1.02421   0.00007   0.00000   0.00230   0.00229  -1.02192
   D61       -3.13830   0.00035   0.00000   0.00517   0.00517  -3.13313
   D62       -1.06536  -0.00023   0.00000  -0.00293  -0.00294  -1.06830
   D63        1.04361   0.00007   0.00000  -0.00011  -0.00012   1.04349
   D64        1.04317   0.00015   0.00000   0.00084   0.00083   1.04400
   D65       -1.02422   0.00006   0.00000   0.00208   0.00208  -1.02214
   D66       -1.06558  -0.00020   0.00000  -0.00235  -0.00236  -1.06794
   D67       -3.13297  -0.00028   0.00000  -0.00111  -0.00111  -3.13409
   D68       -3.13814   0.00039   0.00000   0.00548   0.00548  -3.13265
   D69        1.07766   0.00030   0.00000   0.00672   0.00672   1.08438
   D70       -1.03095   0.00008   0.00000   0.00066   0.00066  -1.03030
   D71        1.03144  -0.00013   0.00000  -0.00074  -0.00074   1.03070
   D72       -3.11908  -0.00018   0.00000  -0.00350  -0.00351  -3.12259
   D73       -1.05669  -0.00040   0.00000  -0.00490  -0.00490  -1.06159
   D74        1.05629   0.00042   0.00000   0.00671   0.00671   1.06301
   D75        3.11869   0.00020   0.00000   0.00531   0.00532   3.12400
   D76        1.02393  -0.00004   0.00000  -0.00167  -0.00166   1.02227
   D77       -1.04341  -0.00014   0.00000  -0.00079  -0.00078  -1.04419
   D78       -1.07744  -0.00029   0.00000  -0.00675  -0.00675  -1.08419
   D79        3.13841  -0.00039   0.00000  -0.00587  -0.00587   3.13255
   D80        3.13271   0.00030   0.00000   0.00149   0.00149   3.13420
   D81        1.06537   0.00020   0.00000   0.00237   0.00237   1.06774
         Item               Value     Threshold  Converged?
 Maximum Force            0.009265     0.000450     NO 
 RMS     Force            0.002217     0.000300     NO 
 Maximum Displacement     0.065779     0.001800     NO 
 RMS     Displacement     0.013322     0.001200     NO 
 Predicted change in Energy=-1.260730D-03
 GradGradGradGradGradGradGradGradGradGradGradGradGradGradGradGradGradGrad

                          Input orientation:                          
 ---------------------------------------------------------------------
 Center     Atomic      Atomic             Coordinates (Angstroms)
 Number     Number       Type             X           Y           Z
 ---------------------------------------------------------------------
      1          6           0        3.202494    1.183453    0.713925
      2          6           0        1.270413   -0.026724    1.408247
      3          6           0        1.272183    1.235193   -0.684075
      4          1           0        4.297140    1.191850    0.720057
      5          1           0        0.888709   -0.924680    1.902001
      6          1           0        0.891494    2.112268   -0.153561
      7          1           0        0.892450    1.253703   -1.709336
      8          1           0        2.847773    2.071092    1.248869
      9          1           0        0.888616    0.851571    1.936129
     10          7           0        2.726798    1.233693   -0.681284
     11          7           0        0.711165    0.000064   -0.002770
     12          7           0        2.725299   -0.026589    1.408416
     13          6           0        3.204909    0.027331   -1.381519
     14          1           0        2.852339    0.047391   -2.418443
     15          1           0        4.299649    0.027641   -1.389692
     16          6           0        1.272733   -1.207753   -0.730972
     17          1           0        0.892935   -2.104723   -0.234165
     18          1           0        0.892783   -1.187562   -1.756138
     19          6           0        3.203175   -1.208636    0.667257
     20          1           0        4.297826   -1.216403    0.672779
     21          1           0        2.849138   -2.116485    1.167588
     22          7           0        2.727382   -1.205625   -0.728834
     23         79           0       -1.395087    0.000950   -0.006719
     24         17           0       -3.671002   -0.006263    0.018043
 ---------------------------------------------------------------------
                    Distance matrix (angstroms):
                    1          2          3          4          5
     1  C    0.000000
     2  C    2.383180   0.000000
     3  C    2.383942   2.443409   0.000000
     4  H    1.094696   3.334607   3.335241   0.000000
     5  H    3.348037   1.093533   3.391149   4.182594   0.000000
     6  H    2.637414   2.675465   1.093449   3.634392   3.667205
     7  H    3.348646   3.391411   1.093481   4.183024   4.217478
     8  H    1.095397   2.629505   2.630111   1.775775   3.638566
     9  H    2.637795   1.093541   2.675773   3.634923   1.776578
    10  N    1.474930   2.841803   1.454618   2.105109   3.835427
    11  N    2.849699   1.518040   1.518045   3.847343   2.124812
    12  N    1.474529   1.454886   2.842914   2.104547   2.103153
    13  C    2.393221   3.395289   2.383441   2.639260   4.129481
    14  H    3.350369   4.141441   2.629791   3.639700   4.844275
    15  H    2.639101   4.124038   3.334911   2.409653   4.834943
    16  C    3.395522   2.443581   2.443397   4.124393   2.675846
    17  H    4.128564   2.675460   3.391355   4.833896   2.440436
    18  H    4.130096   3.391678   2.676380   4.835576   3.667575
    19  C    2.392545   2.383600   3.395163   2.638538   2.638556
    20  H    2.638324   3.334887   4.123820   2.408717   3.635679
    21  H    3.349666   2.630093   4.141158   3.638966   2.408950
    22  N    2.831074   2.842478   2.842042   3.211123   3.221947
    23  Au   4.801603   3.017910   3.016040   5.860708   3.117006
    24  Cl   7.010323   5.133291   5.144829   8.088238   5.018342
                    6          7          8          9         10
     6  H    0.000000
     7  H    1.776955   0.000000
     8  H    2.407391   3.639009   0.000000
     9  H    2.440527   3.667580   2.407874   0.000000
    10  N    2.102077   2.102884   2.107454   3.221146   0.000000
    11  N    2.125245   2.125286   3.228134   2.125061   2.458657
    12  N    3.221386   3.836517   2.107302   2.103105   2.440319
    13  C    3.347646   2.637977   3.350141   4.129332   1.474526
    14  H    3.638451   2.408151   4.188623   4.844091   2.107319
    15  H    4.182011   3.635163   3.639456   4.834780   2.104819
    16  C    3.391355   2.675926   4.141419   3.391429   2.842082
    17  H    4.217762   3.668127   4.843368   3.667407   3.835099
    18  H    3.668397   2.441714   4.844676   4.217928   3.222017
    19  C    4.128683   4.129257   3.349806   3.348384   2.830277
    20  H    4.833838   4.834510   3.638978   4.182736   3.210076
    21  H    4.843569   4.843912   4.188366   3.639184   3.828444
    22  N    3.835341   3.221281   3.829188   3.836033   2.439781
    23  Au   3.115715   3.114662   4.885064   3.116651   4.354839
    24  Cl   5.033289   5.039489   6.951602   5.020463   6.554265
                   11         12         13         14         15
    11  N    0.000000
    12  N    2.459449   0.000000
    13  C    2.849641   2.831373   0.000000
    14  H    3.228365   3.829681   1.095408   0.000000
    15  H    3.847276   3.211063   1.094771   1.775788   0.000000
    16  C    1.518044   2.842899   2.383685   2.630228   3.335017
    17  H    2.125256   3.220912   3.347731   3.638946   4.181857
    18  H    2.125497   3.836714   2.638605   2.409070   3.635621
    19  C    2.849562   1.474760   2.392719   3.349960   2.638499
    20  H    3.847115   2.104676   2.638463   3.638992   2.408618
    21  H    3.228071   2.107368   3.349697   4.188315   3.638811
    22  N    2.458858   2.440895   1.474521   2.107235   2.104686
    23  Au   2.106256   4.356712   4.801118   4.884587   5.860319
    24  Cl   4.382222   6.545703   7.016984   6.963715   8.094081
                   16         17         18         19         20
    16  C    0.000000
    17  H    1.093443   0.000000
    18  H    1.093497   1.776959   0.000000
    19  C    2.383622   2.636805   3.348313   0.000000
    20  H    3.334933   3.633860   4.182677   1.094692   0.000000
    21  H    2.629710   2.406612   3.638461   1.095382   1.775860
    22  N    1.454652   2.101968   2.102720   1.474944   2.104977
    23  Au   3.017079   3.117793   3.115666   4.802224   5.861136
    24  Cl   5.142482   5.029579   5.036995   7.008673   8.086738
                   21         22         23         24
    21  H    0.000000
    22  N    2.107346   0.000000
    23  Au   4.886304   4.355688   0.000000
    24  Cl   6.948864   6.552527   2.276062   0.000000
 Stoichiometry    C6H12AuClN4
 Framework group  C1[X(C6H12AuClN4)]
 Deg. of freedom    66
 Full point group                 C1      NOp   1
 Largest Abelian subgroup         C1      NOp   1
 Largest concise Abelian subgroup C1      NOp   1
                         Standard orientation:                         
 ---------------------------------------------------------------------
 Center     Atomic      Atomic             Coordinates (Angstroms)
 Number     Number       Type             X           Y           Z
 ---------------------------------------------------------------------
      1          6           0        3.220171    1.024526   -0.929015
      2          6           0        1.286985    1.345071    0.427299
      3          6           0        1.290955   -0.302257   -1.377290
      4          1           0        4.314817    1.033448   -0.934585
      5          1           0        0.904476    1.562994    1.428305
      6          1           0        0.910277    0.455448   -2.067651
      7          1           0        0.912015   -1.280194   -1.686714
      8          1           0        2.865463    1.789498   -1.628227
      9          1           0        0.905201    2.100599   -0.264979
     10          7           0        2.745566   -0.299138   -1.374079
     11          7           0        0.728829   -0.000466    0.000170
     12          7           0        2.741870    1.346142    0.428198
     13          6           0        3.223640   -1.313102   -0.416190
     14          1           0        2.871873   -2.301764   -0.730397
     15          1           0        4.318386   -1.320195   -0.418074
     16          6           0        1.290379   -1.041607    0.951561
     17          1           0        0.909774   -0.820476    1.952491
     18          1           0        0.911223   -2.018975    0.640553
     19          6           0        3.219750    0.299853    1.351143
     20          1           0        4.314392    0.303594    1.360896
     21          1           0        2.864898    0.521286    2.363521
     22          7           0        2.745027   -1.038082    0.951108
     23         79           0       -1.377419   -0.005260   -0.003220
     24         17           0       -3.653356    0.015069    0.009201
 ---------------------------------------------------------------------
 Rotational constants (GHZ):      1.8417076      0.2804567      0.2804435
 Basis read from rwf:  (5D, 7F)
 Pseudo-potential data read from rwf file.
 There are   241 symmetry adapted cartesian basis functions of A   symmetry.
 There are   224 symmetry adapted basis functions of A   symmetry.
   224 basis functions,   428 primitive gaussians,   241 cartesian basis functions
    56 alpha electrons       56 beta electrons
       nuclear repulsion energy      1024.5173308790 Hartrees.
 NAtoms=   24 NActive=   24 NUniq=   24 SFac= 1.00D+00 NAtFMM=   60 NAOKFM=F Big=F
 Integral buffers will be    131072 words long.
 Raffenetti 2 integral format.
 Two-electron integral symmetry is turned on.
 One-electron integrals computed using PRISM.
   1 Symmetry operations used in ECPInt.
 ECPInt:  NShTT=    3486 NPrTT=   18204 LenC2=    3358 LenP2D=   12151.
 LDataN:  DoStor=T MaxTD1= 7 Len=  274
 NBasis=   224 RedAO= T EigKep=  4.95D-03  NBF=   224
 NBsUse=   224 1.00D-06 EigRej= -1.00D+00 NBFU=   224
 Defaulting to unpruned grid for atomic number  79.
 Initial guess from the checkpoint file:  "/home/scr/guest2/Gau-6347.chk"
 B after Tr=     0.000000    0.000000    0.000000
         Rot=    0.801333    0.598219    0.000211   -0.000042 Ang=  73.48 deg.
 ExpMin= 2.79D-02 ExpMax= 2.52D+04 ExpMxC= 3.78D+03 IAcc=3 IRadAn=         5 AccDes= 0.00D+00
 Harris functional with IExCor=  402 and IRadAn=       5 diagonalized for initial guess.
 HarFok:  IExCor=  402 AccDes= 0.00D+00 IRadAn=         5 IDoV= 1 UseB2=F ITyADJ=14
 ICtDFT=  3500011 ScaDFX=  1.000000  1.000000  1.000000  1.000000
 Defaulting to unpruned grid for atomic number  79.
 Defaulting to unpruned grid for atomic number  79.
 Defaulting to unpruned grid for atomic number  79.
 Defaulting to unpruned grid for atomic number  79.
 Defaulting to unpruned grid for atomic number  79.
 Defaulting to unpruned grid for atomic number  79.
 Defaulting to unpruned grid for atomic number  79.
 Defaulting to unpruned grid for atomic number  79.
 FoFCou: FMM=F IPFlag=           0 FMFlag=      100000 FMFlg1=           0
         NFxFlg=           0 DoJE=T BraDBF=F KetDBF=T FulRan=T
         wScrn=  0.000000 ICntrl=     500 IOpCl=  0 I1Cent=   200000004 NGrid=           0
         NMat0=    1 NMatS0=      1 NMatT0=    0 NMatD0=    1 NMtDS0=    0 NMtDT0=    0
[...]
 96249,-0.01007151,-0.00021141,-0.00016778,-0.00010251,-0.00042636,0.00
 009184,0.00032230,-0.00104077,-0.00451627,0.00156490,-0.00040533,0.000
 29028,-0.00006068,0.00020165,0.00059687,0.00035823,-0.00105028,-0.0007
 1007,-0.00472795,-0.00702002,0.01132264,0.00105209,-0.07762109,0.00507
 483,0.00280371,-0.00688629,0.00625833,0.00958435,-0.02802316,-0.020917
 88,0.01294857,0.00090629,0.00252830,-0.00192346,0.00169118,-0.00063650
 ,-0.00011037,0.46716902,-0.00093231,-0.00246830,-0.00062371,-0.0072415
 0,-0.00011830,-0.01511308,0.00345356,-0.04246974,-0.00919760,0.0003945
 3,0.00011726,0.00012624,0.00037938,0.00071479,0.00302358,-0.00196958,-
 0.00186099,0.00197543,0.00060886,0.00149222,-0.00162583,-0.00012246,0.
 00002994,0.00000706,0.00056650,0.00083730,0.00344445,0.00560356,-0.000
 06333,-0.00235617,-0.00681082,-0.10987302,-0.00815976,0.00497431,-0.00
 188209,-0.00082878,-0.03952785,-0.00215849,0.00198121,0.00005180,0.000
 67752,-0.00096373,-0.00227644,-0.00510735,0.00287769,0.10840318,0.5215
 7648,-0.00055224,-0.00060969,-0.00181812,0.00715867,-0.03135420,-0.029
 48504,-0.00998544,0.00695395,0.01280484,0.00024024,0.00012791,-0.00001
 684,0.00049647,-0.00126795,0.00077012,0.00168026,0.00486764,-0.0020237
 8,0.00011118,0.00257761,-0.00001453,-0.00007251,0.00001370,0.00002029,
 -0.00253634,0.00056821,-0.00470311,0.00255921,-0.00174492,-0.00018796,
 -0.00430691,-0.00781201,-0.10183067,0.00392668,-0.00146600,0.00155466,
 0.02161078,0.00172704,0.00053286,0.00210658,0.00091448,-0.00009093,0.0
 0156036,0.00410477,-0.00159427,0.06574531,-0.11325580,0.64117335,0.000
 07011,-0.00001674,0.00037038,-0.00041073,-0.00021324,-0.00059668,-0.00
 105895,0.00190651,0.00176427,0.00004023,0.00001372,0.00004796,0.000128
 86,-0.00020638,-0.00007070,0.00042906,0.00084344,-0.00016408,-0.000029
 32,-0.00020727,0.00029422,0.00000271,0.00002434,-0.00011399,-0.0000310
 6,0.00006621,-0.00004686,0.00093733,-0.00080142,-0.00039581,0.00466150
 ,0.01274773,-0.00526624,0.00005664,0.00015046,-0.00074704,-0.00680789,
 0.00253477,-0.00225434,0.00017045,0.00015950,0.00006770,-0.00060272,-0
 .00179987,0.00088514,-0.07846833,-0.07386129,0.03836730,0.09466629,0.0
 0018944,0.00000329,0.00042620,-0.00022829,0.00006312,0.00257166,0.0044
 3748,-0.00157375,-0.00483897,-0.00003566,0.00005143,-0.00007363,-0.000
 02029,0.00042487,-0.00107733,-0.00083467,-0.00134588,0.00068602,0.0000
 0800,0.00019681,0.00003421,0.00004122,0.00000502,0.00000267,0.00035727
 ,0.00035785,-0.00012330,-0.00077282,0.00040824,0.00018140,-0.00466453,
 -0.02979288,0.00976966,-0.00035267,-0.00008240,-0.00061281,0.00074182,
 0.00188287,-0.00053405,0.00010315,-0.00005637,0.00010816,0.00013610,0.
 00011251,-0.00007297,-0.07559586,-0.22724115,0.10185451,0.07819373,0.2
 5049787,-0.00008014,-0.00014957,0.00011914,-0.00023003,-0.00166069,0.0
 0151745,0.00174224,-0.00196247,-0.00228995,0.00000745,-0.00000159,-0.0
 0003488,0.00012794,0.00016020,0.00000212,-0.00019559,-0.00077123,0.000
 82070,0.00008183,-0.00026066,0.00027747,-0.00002745,0.00005576,0.00005
 545,0.00002912,0.00016887,0.00012020,-0.00054396,0.00049299,-0.0001299
 2,-0.00435344,-0.01857600,0.00614106,0.00014425,0.00061918,-0.00001332
 ,-0.00027127,-0.00047410,0.00095744,-0.00007092,-0.00026391,0.00048762
 ,0.00020136,0.00016582,0.00041573,0.04076733,0.10960133,-0.11466852,-0
 .04827369,-0.10825167,0.11640126,0.00007010,0.00032085,-0.00018561,-0.
 00105329,0.00244897,0.00087113,-0.00041879,-0.00052735,0.00009712,0.00
 004071,0.00004925,-0.00000961,-0.00003134,0.00016447,-0.00031785,-0.00
 003041,-0.00000712,0.00008230,0.00011082,-0.00017611,-0.00008712,0.000
 00291,-0.00008930,0.00007485,0.00042917,0.00024751,0.00082375,0.000054
 39,-0.00059975,0.00047776,0.00453994,0.00126229,0.01382730,0.00094373,
 -0.00071673,-0.00052107,0.00107540,0.00178861,-0.00298919,-0.00006478,
 -0.00062345,0.00118556,0.00023504,0.00029028,0.00027973,-0.07914555,-0
 .00088771,-0.08351262,0.00486757,0.00045626,0.01015000,0.09531101,0.00
 001689,0.00020870,-0.00025497,0.00361594,-0.00493610,-0.00019493,-0.00
 032802,0.00173270,-0.00247631,-0.00000950,-0.00004664,0.00005097,0.000
 07486,0.00016651,-0.00024396,0.00019361,0.00019008,0.00025738,0.000180
 82,-0.00041731,0.00059813,-0.00000531,0.00006881,0.00002236,-0.0005633
 6,0.00031573,-0.00164609,-0.00004719,-0.00002440,0.00058749,-0.0059815
 9,-0.00541585,-0.03151992,-0.00083282,0.00026553,0.00057561,-0.0005656
 8,-0.00049430,-0.00130427,-0.00027598,0.00022914,0.00015081,0.00010292
 ,0.00003995,-0.00002576,0.00039873,-0.05238196,0.01724476,0.00918362,0
 .00175360,0.02369750,-0.00593154,0.05669359,0.00020286,0.00031738,-0.0
 0008689,0.00312354,-0.00307600,0.00106927,-0.00008071,0.00175649,-0.00
 005892,-0.00003478,-0.00002214,0.00006407,-0.00003173,0.00004937,0.000
 30684,0.00030184,-0.00003777,0.00028751,-0.00009429,-0.00067778,0.0007
 3235,0.00004893,-0.00003093,-0.00000828,-0.00064819,-0.00018892,-0.000
 84269,-0.00039840,-0.00065309,-0.00006909,-0.00203600,-0.00321123,-0.0
 1839102,-0.00041917,0.00026686,0.00002133,0.00100611,0.00061181,0.0007
 2197,-0.00013989,-0.00051240,0.00022902,0.00002617,-0.00002449,0.00039
 696,-0.08606228,0.00968899,-0.29012281,-0.00429697,0.00044900,-0.01099
 512,0.09167120,-0.00612103,0.31097864,0.00862409,-0.00481323,-0.008718
 56,-0.02842584,0.03864188,0.02314168,-0.00239815,0.00093592,-0.0005189
 3,-0.00017193,-0.00283921,0.00010557,0.00090813,0.00123349,0.00006640,
 0.00007071,-0.00018420,-0.00008719,0.00006967,-0.00002397,0.00020355,-
 0.00076102,-0.00403008,0.00171129,-0.00680099,-0.00060914,-0.00051042,
 0.00020958,-0.00242858,0.00130975,0.00534919,-0.00045654,0.00027286,-0
 .10689461,0.00826220,0.01377556,0.00863781,0.00471153,0.00881293,-0.00
 076275,-0.00360077,0.00249330,-0.00018265,-0.00161479,0.00235836,-0.02
 804881,0.00096413,-0.04502877,0.00096947,0.00059332,-0.00106632,-0.006
 79880,0.00010411,0.00078789,0.66652364,0.00534077,-0.05049939,-0.00954
 159,0.02169712,-0.00173464,-0.00236953,0.00122379,-0.00248618,0.000578
 47,0.00180927,0.00156736,-0.00136277,-0.00343296,0.00069337,0.00056737
 ,0.00000418,0.00001286,0.00014311,-0.00031287,0.00021033,-0.00030599,-
 0.00168686,-0.00233544,0.00310766,-0.00323608,0.00161603,0.00068418,0.
 00088796,0.00204525,-0.00853259,-0.00469759,-0.00116311,-0.00426561,0.
 01820623,-0.14361639,-0.01123792,0.01002500,-0.00168965,0.03853064,-0.
 00216309,-0.00537112,0.00314529,0.00090763,0.00059672,-0.00024369,0.00
 155687,0.00137639,-0.00021065,-0.00175705,0.00019326,-0.00161261,-0.00
 082900,0.00074701,0.00005824,0.05306038,0.56123880,-0.00847094,0.00641
 326,0.01643852,0.01180987,-0.00217726,-0.00022706,-0.00068408,0.000587
 18,-0.00176372,0.00007922,0.00045611,-0.00033303,-0.00007261,-0.001305
 29,-0.00046807,0.00037132,-0.00042904,0.00010937,-0.00020413,0.0002712
 5,-0.00009091,0.00149973,0.00505254,-0.00143100,-0.00106796,0.00061366
 ,0.00121389,-0.00048526,-0.00859623,-0.00875885,0.00263501,-0.00427681
 ,-0.00651122,0.03216655,-0.03752486,-0.08664594,0.00005701,0.02193303,
 -0.03350001,0.00062430,0.00119340,0.00159526,-0.00158953,-0.00197017,0
 .00068139,-0.02464299,-0.00040153,-0.00342695,0.00290225,0.00023527,0.
 00001737,0.00330060,0.00013386,0.00208366,-0.02919493,-0.11004233,0.42
 179343,-0.00015181,-0.00184774,0.00002001,0.00168562,0.00250028,0.0011
 9559,-0.00021502,-0.00041000,0.00022604,0.00074888,0.00068901,-0.00036
 654,0.00023389,-0.00003098,-0.00009976,0.00003989,0.00003540,0.0000090
 0,0.00003975,0.00001144,-0.00003482,0.00046037,0.00002876,0.00013060,-
 0.00060481,0.00010608,-0.00021989,0.00009882,0.00072883,-0.00040511,-0
 .00024251,0.00003165,-0.00002019,-0.01185171,0.00257555,0.00459062,-0.
 00017741,-0.00092938,0.00150125,0.00046167,-0.00009526,-0.00009439,0.0
 0075882,0.00074122,-0.00043363,0.00169281,0.00032729,-0.00274297,0.000
 23177,0.00006689,0.00007713,-0.00060438,0.00024242,0.00002693,-0.31506
 650,-0.00163835,0.00088780,0.34183266,0.00281241,0.00151200,-0.0004080
 7,0.00023062,-0.00549625,-0.00265327,0.00018003,0.00013274,-0.00012504
 ,-0.00069339,-0.00037567,0.00003829,0.00009605,0.00033034,-0.00014141,
 -0.00001545,0.00004829,0.00000460,-0.00004817,-0.00004564,0.00001785,-
 0.00021758,0.00027243,-0.00010930,0.00166496,0.00030088,-0.00003306,-0
 .00052415,-0.00013706,0.00035269,-0.00017788,0.00018787,0.00026442,0.0
 3083387,-0.00346372,-0.00445784,0.00129833,-0.00031280,0.00025139,-0.0
 0003889,0.00001365,-0.00010090,0.00000201,0.00012992,0.00027713,-0.000
 39320,0.00052136,-0.00008253,0.00038173,0.00029980,-0.00016430,-0.0000
 5567,0.00038814,-0.00021799,-0.00924241,-0.05366909,0.00356699,-0.0001
 8379,0.05632966,0.00023845,0.00143882,-0.00029244,0.00061116,-0.003878
 40,-0.00120507,-0.00009833,-0.00012454,-0.00002554,-0.00043904,-0.0002
 1924,0.00031231,-0.00039148,-0.00014348,0.00010772,0.00004712,0.000077
 04,-0.00003140,-0.00001220,-0.00005462,0.00006237,-0.00009141,0.000061
 15,-0.00011883,0.00111735,-0.00027311,0.00022987,0.00028615,0.00034340
 ,0.00029504,0.00009580,0.00026403,0.00052192,0.02010000,-0.00206710,-0
 .00171149,-0.00249527,-0.00147203,0.00150335,0.00023262,-0.00027158,0.
 00013870,0.00081260,0.00044727,-0.00030240,-0.00051965,0.00114477,-0.0
 0722000,0.00012755,-0.00016147,0.00013738,-0.00200449,0.00002115,0.000
 14133,0.00503894,0.00357042,-0.04907463,0.00015782,0.00366394,0.060984
 00,-0.00076603,0.00163518,0.00156414,0.00081703,0.00193119,-0.00096034
 ,0.00020760,0.00012748,-0.00007065,0.00046076,0.00022239,-0.00008165,0
 .00008550,-0.00016199,0.00028015,0.00000290,-0.00003959,-0.00002905,0.
 00000280,0.00000353,0.00004892,0.00067839,0.00040355,-0.00026151,0.000
 17339,-0.00011269,-0.00005406,-0.00017991,-0.00017705,0.00009852,-0.00
 019525,-0.00049605,0.00026651,0.00350095,0.01109230,-0.00424106,-0.000
 76396,-0.00045957,-0.00220888,0.00067895,0.00043654,-0.00020161,0.0004
 6157,0.00018766,-0.00014434,0.00081252,0.00180523,-0.00100904,-0.00003
 387,-0.00036395,-0.00004370,0.00017260,-0.00001529,0.00012321,-0.08742
 398,-0.07814582,0.04311639,-0.00768570,-0.02537809,0.01398837,0.085496
 05,0.00395773,-0.00200429,-0.00509088,-0.00287326,0.00000335,0.0012250
 2,-0.00061418,0.00003093,-0.00001046,-0.00003332,0.00027240,-0.0000473
 9,0.00125027,0.00051456,-0.00032784,-0.00001966,0.00000643,-0.00005768
 ,0.00008687,0.00006787,0.00003429,-0.00039159,-0.00142881,0.00093115,-
 0.00002204,0.00041769,-0.00038255,0.00010153,0.00013987,0.00079671,0.0
 0092316,-0.00008270,0.00014584,-0.00909761,-0.02991053,0.00723336,0.00
 053030,0.00186608,-0.00065795,0.00002445,0.00006916,-0.00006560,-0.000
 12705,-0.00004153,-0.00007358,-0.00045463,0.00006193,-0.00056640,0.000
 54914,0.00012824,0.00004183,0.00013221,0.00030329,-0.00008180,-0.07124
 342,-0.22684078,0.09899044,-0.00050892,0.00231093,-0.00075863,0.077987
 75,0.25168027,0.00187134,-0.00313396,-0.00174859,-0.00122265,-0.000586
 35,0.00046909,0.00033889,-0.00000954,0.00001807,0.00012926,0.00012332,
 -0.00011699,0.00008374,0.00031697,-0.00005085,-0.00011483,-0.00000444,
 0.00005319,0.00007785,-0.00001868,-0.00000825,-0.00027619,-0.00101115,
 0.00061475,-0.00017061,-0.00001051,0.00000975,-0.00005583,0.00079365,0
 .00113990,-0.00051410,0.00014410,0.00008750,-0.00562629,-0.01778106,0.
 00865815,-0.00434451,-0.00261458,-0.00565028,0.00047851,0.00187733,-0.
 00088386,-0.00004106,-0.00024237,0.00019494,0.00303121,0.00122495,0.00
 043161,-0.00107200,-0.00058545,0.00039431,0.00010798,-0.00045400,0.000
 12188,0.03926978,0.09900197,-0.10178280,0.00028755,-0.00075052,0.00135
 247,-0.04303758,-0.10397751,0.12036689,0.00017501,-0.00091356,-0.00053
 039,-0.00689466,-0.00066261,-0.00628120,-0.00703818,-0.00573929,0.0023
 3811,0.00009548,0.00051666,0.00030805,0.00006627,-0.00031263,0.0002209
 4,0.00094282,0.00077763,-0.00051249,0.00008017,0.00003879,-0.00037807,
 -0.00018264,-0.00010082,-0.00006147,0.00094615,-0.00009217,0.00092571,
 0.01617101,0.00139293,-0.00339916,-0.03528561,0.02807929,0.01692815,0.
 01621787,-0.00267849,0.00207701,-0.10736609,-0.03713224,-0.00012453,0.
 00352775,0.00947346,-0.00501425,-0.01189246,-0.03286807,0.01663315,-0.
 18312051,-0.00092069,-0.00006336,-0.01978873,-0.00182925,0.00181065,-0
 .01980883,0.00079310,-0.00248297,-0.10707025,-0.01738277,-0.03272677,-
 0.01177077,-0.00054581,-0.03679412,0.00353600,-0.00014104,0.01079048,0
 .46722981,0.00237866,0.00137766,0.00911190,-0.00478662,0.00160534,0.00
 144567,-0.01140343,-0.00008981,0.00170673,-0.00069002,-0.00010616,-0.0
 0034880,0.00071422,-0.00003838,-0.00058609,0.00080114,0.00045612,-0.00
 047242,0.00056873,-0.00002658,0.00063843,0.00017719,0.00022545,-0.0008
 1008,0.00005101,-0.00028932,0.00023241,-0.00017285,-0.06551326,-0.0005
 0798,0.03697355,0.00308120,-0.00455629,-0.00349533,0.00011840,-0.03837
 347,-0.01639768,-0.12249368,0.02270740,-0.00193650,-0.00558496,0.00687
 859,-0.00535942,-0.00509520,0.00367994,-0.02828463,-0.08216280,0.01707
 047,-0.02881957,0.00359087,-0.00055985,0.00292246,0.00069592,0.0015476
 6,-0.00727121,-0.08062142,0.02809346,-0.00245858,0.00067917,-0.0017426
 3,0.00951750,0.00239394,0.02767957,0.05778557,0.34839024,0.00146848,0.
 00918397,-0.00798121,-0.01035613,0.00074072,-0.00196179,0.00066259,0.0
 0235496,-0.00004610,-0.00042223,-0.00034996,0.00026638,0.00026696,0.00
 065341,-0.00005859,-0.00036290,-0.00015986,-0.00016052,0.00050364,-0.0
 0058166,-0.00007221,0.00010570,-0.00082022,0.00107552,0.00088260,-0.00
 008373,0.00057866,-0.00340882,-0.00410705,0.02007018,0.02183974,-0.004
 46759,0.00768996,0.00093194,-0.03447388,-0.04544418,0.00044139,0.04919
 405,-0.10696688,0.01181407,0.03188309,-0.01575599,-0.00001073,0.001255
 47,-0.00043901,-0.01704977,0.01708483,-0.10008883,0.01854563,0.0000540
 2,0.00025266,-0.03408167,0.00096872,0.00308769,-0.01430565,0.00115517,
 -0.14861690,-0.00468289,0.00067195,-0.00601807,-0.00714289,0.00268150,
 -0.02373536,0.03485256,-0.07164960,0.42366814,-0.00100244,-0.00137313,
 -0.00082951,-0.01282394,0.00021419,-0.01129143,-0.01280658,-0.00990500
 ,0.00546543,0.00025273,-0.00004144,-0.00002508,-0.00003575,-0.00040637
 ,0.00056018,-0.00009022,0.00067038,0.00004905,-0.00009595,0.00028190,-
 0.00059903,-0.00012340,0.00005599,0.00003325,0.00005483,0.00037314,0.0
 0065699,0.00267662,0.00209140,-0.00115178,-0.08287535,0.00007987,-0.00
 005038,0.00267637,-0.00004643,0.00237911,-0.00100525,-0.00003080,0.001
 60413,-0.00012340,0.00000160,-0.00006492,0.00025272,-0.00000094,0.0000
 4859,-0.01281060,0.00965868,0.00584246,-0.00004227,-0.00069640,0.00004
 507,0.00006210,-0.00035804,-0.00066956,-0.00100523,0.00140261,-0.00077
 419,0.00025263,0.00004258,-0.00002337,-0.00012481,-0.00005579,0.000030
 67,0.00268477,-0.00203745,-0.00123124,0.25201936,0.00018702,-0.0003304
 7,0.00102953,0.00024801,-0.00030811,-0.00003743,-0.01098607,0.00087107
 ,-0.00064812,-0.00001571,0.00005824,-0.00016059,0.00063950,0.00021728,
 0.00001192,-0.00110303,0.00007246,0.00024538,-0.00043349,-0.00009035,-
 0.00005145,0.00000030,0.00003773,-0.00003485,-0.00055667,0.00020046,0.
 00009390,-0.00298796,-0.00104059,0.00141908,-0.00004187,-0.03158712,-0
 .00016249,0.00006923,0.00153020,0.00006689,0.00000475,-0.00203734,-0.0
 0004558,-0.00000077,0.00009457,0.00000177,-0.00000064,0.00032383,0.000
 00712,0.01070994,0.00083412,0.00068624,0.00105392,0.00012078,-0.000262
 17,0.00039399,-0.00003840,0.00007717,-0.00019170,-0.00024972,-0.000985
 18,0.00001621,0.00004572,0.00015363,0.00000085,0.00003429,0.00003332,0
 .00292244,-0.00092448,-0.00148487,0.00009564,0.04617809,0.00011265,0.0
 0103089,-0.00141381,-0.01251351,-0.00004172,0.00124105,0.00604684,-0.0
 0065315,0.00005471,-0.00000935,-0.00016070,0.00022708,-0.00083076,-0.0
 0020162,-0.00004240,-0.00018704,0.00005521,0.00003635,0.00105949,0.000
 18053,0.00019735,0.00000087,-0.00003420,0.00007347,-0.00081359,0.00021
 569,0.00007352,0.00164578,0.00141675,0.00075012,-0.00000975,-0.0001789
 8,-0.03171852,-0.00341218,0.00006470,-0.00182075,-0.00021812,-0.000045
 18,0.00029029,-0.00000026,0.00000104,0.00001672,0.00001816,0.00000711,
 -0.00003880,0.00646851,0.00068598,0.00009628,-0.00010331,-0.00004967,0
 .00005836,0.00088635,-0.00005954,0.00033199,0.00010642,-0.00098570,-0.
 00149369,-0.00000908,0.00015374,0.00023980,-0.00000041,0.00003320,0.00
 007607,0.00176144,-0.00148099,0.00063656,-0.00004085,0.00004699,0.0461
 4148,0.00044836,0.00082131,0.00049519,0.00021305,-0.00006038,0.0030834
 1,0.00021399,0.00270457,-0.00149137,-0.00016690,0.00002731,0.00001672,
 0.00004204,0.00006055,-0.00004499,0.00004228,-0.00007040,-0.00003185,0
 .00003995,-0.00001172,0.00007690,0.00008668,-0.00003847,-0.00002306,0.
 00004143,-0.00006127,-0.00004593,-0.00145082,-0.00125380,0.00069102,-0
 .00360326,0.00000419,-0.00000104,-0.00145230,0.00002718,-0.00142835,0.
 00044891,0.00001896,-0.00095880,0.00008668,-0.00000095,0.00004478,-0.0
 0016685,0.00000046,-0.00003205,0.00021249,-0.00264038,-0.00159529,0.00
 004189,0.00006970,-0.00002787,0.00004069,0.00000731,0.00007628,0.00044
 922,-0.00083937,0.00046336,-0.00016695,-0.00002809,0.00001543,0.000086
 53,0.00003912,-0.00002160,-0.00145438,0.00122326,0.00073963,-0.1359669
 5,-0.00002389,0.00004171,0.14193420,-0.00004096,-0.00000667,-0.0001758
 0,-0.00002943,0.00011342,0.00001513,0.00131476,-0.00047601,0.00032556,
 -0.00000196,-0.00000419,0.00001963,-0.00009227,-0.00002051,-0.00000495
 ,0.00012305,-0.00000099,0.00003477,0.00003774,-0.00004465,-0.00003390,
 0.00000104,0.00000619,0.00001577,0.00008980,-0.00002377,0.00000490,0.0
 0047013,0.00035517,-0.00028356,-0.00000812,0.00868711,-0.00000042,-0.0
 0001094,-0.00015869,-0.00001318,-0.00000099,0.00028474,0.00000765,0.00
 000002,-0.00001993,-0.00000071,-0.00000004,-0.00003667,-0.00000087,-0.
 00128380,-0.00045180,-0.00034114,-0.00012600,0.00000200,-0.00003266,-0
 .00003344,-0.00004373,0.00003261,0.00004230,-0.00002045,0.00016826,0.0
 0000197,-0.00000267,-0.00001879,-0.00000104,0.00000739,-0.00001507,-0.
 00046044,0.00033177,0.00029655,-0.00001618,-0.01401227,-0.00000038,0.0
 0002480,0.00553520,-0.00002478,-0.00017622,0.00017810,0.00149964,0.000
 01589,-0.00065733,-0.00072505,0.00032494,-0.00006549,-0.00000115,0.000
 01964,-0.00002482,0.00009088,-0.00004604,-0.00002243,0.00003360,-0.000
 00652,-0.00004426,-0.00012143,0.00000789,-0.00000075,0.00000061,0.0000
 1578,-0.00001039,0.00009586,0.00004494,-0.00001982,-0.00025881,-0.0002
 8302,-0.00000269,0.00000375,-0.00000142,0.00868691,0.00053736,-0.00001
 299,0.00051114,0.00004798,0.00000764,-0.00011262,-0.00000127,-0.000000
 70,0.00001573,0.00000233,-0.00000087,0.00000767,-0.00077517,-0.0003405
 0,-0.00009164,0.00002933,0.00000855,-0.00004402,-0.00012642,-0.0000079
 5,0.00000033,-0.00002348,0.00016847,0.00019188,-0.00000106,-0.00001879
 ,-0.00002639,0.00000055,-0.00001506,-0.00001158,-0.00027746,0.00029598
 ,0.00001988,0.00003641,-0.00000022,-0.01401322,-0.00004222,0.00000059,
 0.00553584\\-0.00002849,0.00000351,-0.00002805,0.00004982,0.00001080,-
 0.00013775,-0.00007012,0.00004579,0.00006183,0.00001588,0.00002040,-0.
 00001904,0.00001902,0.00001215,-0.00001398,0.00007114,0.00002153,-0.00
 006179,0.00006924,0.00002915,0.00000038,0.00003108,0.00008013,-0.00007
 661,-0.00012516,-0.00003271,0.00001266,-0.00025989,-0.00013543,0.00021
 106,-0.00028719,-0.00013322,0.00006349,0.00020263,0.00008629,-0.000172
 62,0.00006002,0.00006032,0.00010085,0.00000269,0.00001416,-0.00000505,
 0.00001304,-0.00002225,0.00001078,0.00002525,0.00022757,-0.00005989,0.
 00001213,-0.00002529,0.00000102,-0.00007916,-0.00005260,0.00002937,0.0
 0007704,-0.00013172,0.00004412,-0.00003423,0.00001765,-0.00001790,0.00
 004452,-0.00001330,0.00001308,0.00014843,-0.00005988,0.00000794,0.0000
 0998,-0.00002832,0.00003927,0.00003232,0.00000527,-0.00000316\\\@


 THE REAL VOYAGE OF DISCOVERY CONSISTS NOT IN SEEKING NEW LANDSCAPES 
 BUT IN HAVING NEW EYES.
                                                    -- MARCEL PROUST
 Job cpu time:       0 days  0 hours 25 minutes 44.3 seconds.
 File lengths (MBytes):  RWF=    160 Int=      0 D2E=      0 Chk=      5 Scr=      1
 Normal termination of Gaussian 09 at Thu May 18 08:19:02 2023.
