 Entering Gaussian System, Link 0=g09
 Input=au-1to3-ts-2-af-cl-cterm-se-wat-ts-p.com
 Output=au-1to3-ts-2-af-cl-cterm-se-wat-ts-p.log
 Initial command:
 /home/scr/programs/g09/l1.exe "/home/scr/helius/Gau-5528.inp" -scrdir="/home/scr/helius/"
 Entering Link 1 = /home/scr/programs/g09/l1.exe PID=      5530.
  
 Copyright (c) 1988,1990,1992,1993,1995,1998,2003,2009,2013,
            Gaussian, Inc.  All Rights Reserved.
  
 This is part of the Gaussian(R) 09 program.  It is based on
 the Gaussian(R) 03 system (copyright 2003, Gaussian, Inc.),
 the Gaussian(R) 98 system (copyright 1998, Gaussian, Inc.),
 the Gaussian(R) 94 system (copyright 1995, Gaussian, Inc.),
 the Gaussian 92(TM) system (copyright 1992, Gaussian, Inc.),
 the Gaussian 90(TM) system (copyright 1990, Gaussian, Inc.),
 the Gaussian 88(TM) system (copyright 1988, Gaussian, Inc.),
 the Gaussian 86(TM) system (copyright 1986, Carnegie Mellon
 University), and the Gaussian 82(TM) system (copyright 1983,
 Carnegie Mellon University). Gaussian is a federally registered
 trademark of Gaussian, Inc.
  
 This software contains proprietary and confidential information,
 including trade secrets, belonging to Gaussian, Inc.
  
 This software is provided under written license and may be
 used, copied, transmitted, or stored only in accord with that
 written license.
  
 The following legend is applicable only to US Government
 contracts under FAR:
  
                    RESTRICTED RIGHTS LEGEND
  
 Use, reproduction and disclosure by the US Government is
 subject to restrictions as set forth in subparagraphs (a)
 and (c) of the Commercial Computer Software - Restricted
 Rights clause in FAR 52.227-19.
  
 Gaussian, Inc.
 340 Quinnipiac St., Bldg. 40, Wallingford CT 06492
  
  
 ---------------------------------------------------------------
 Warning -- This program may not be used in any manner that
 competes with the business of Gaussian, Inc. or will provide
 assistance to any competitor of Gaussian, Inc.  The licensee
 of this program is prohibited from giving any competitor of
 Gaussian, Inc. access to this program.  By using this program,
 the user acknowledges that Gaussian, Inc. is engaged in the
 business of creating and licensing software in the field of
 computational chemistry and represents and warrants to the
 licensee that it is not a competitor of Gaussian, Inc. and that
 it will not use this program in any manner prohibited above.
 ---------------------------------------------------------------
  

 Cite this work as:
 Gaussian 09, Revision D.01,
 M. J. Frisch, G. W. Trucks, H. B. Schlegel, G. E. Scuseria, 
 M. A. Robb, J. R. Cheeseman, G. Scalmani, V. Barone, B. Mennucci, 
 G. A. Petersson, H. Nakatsuji, M. Caricato, X. Li, H. P. Hratchian, 
 A. F. Izmaylov, J. Bloino, G. Zheng, J. L. Sonnenberg, M. Hada, 
 M. Ehara, K. Toyota, R. Fukuda, J. Hasegawa, M. Ishida, T. Nakajima, 
 Y. Honda, O. Kitao, H. Nakai, T. Vreven, J. A. Montgomery, Jr., 
 J. E. Peralta, F. Ogliaro, M. Bearpark, J. J. Heyd, E. Brothers, 
 K. N. Kudin, V. N. Staroverov, T. Keith, R. Kobayashi, J. Normand, 
 K. Raghavachari, A. Rendell, J. C. Burant, S. S. Iyengar, J. Tomasi, 
 M. Cossi, N. Rega, J. M. Millam, M. Klene, J. E. Knox, J. B. Cross, 
 V. Bakken, C. Adamo, J. Jaramillo, R. Gomperts, R. E. Stratmann, 
 O. Yazyev, A. J. Austin, R. Cammi, C. Pomelli, J. W. Ochterski, 
 R. L. Martin, K. Morokuma, V. G. Zakrzewski, G. A. Voth, 
 P. Salvador, J. J. Dannenberg, S. Dapprich, A. D. Daniels, 
 O. Farkas, J. B. Foresman, J. V. Ortiz, J. Cioslowski, 
 and D. J. Fox, Gaussian, Inc., Wallingford CT, 2013.
 
 ******************************************
 Gaussian 09:  EM64L-G09RevD.01 24-Apr-2013
                27-Dec-2022 
 ******************************************
 %mem=30000MB
 %nprocshared=12
 Will use up to   12 processors via shared memory.
 ----------------------------------------
 # opt freq=noraman b3lyp/gen pseudo=read
 ----------------------------------------
 1/14=-1,18=20,19=15,26=3,38=1/1,3;
 2/9=110,12=2,17=6,18=5,40=1/2;
 3/5=7,11=2,16=1,17=8,25=1,30=1,71=1,74=-5/1,2,3;
 4//1;
 5/5=2,38=5/2;
 6/7=2,8=2,9=2,10=2,28=1/1;
 7//1,2,3,16;
 1/14=-1,18=20,19=15,26=3/3(2);
 2/9=110/2;
 99//99;
 2/9=110/2;
 3/5=7,6=1,11=2,16=1,17=8,25=1,30=1,71=1,74=-5,82=7/1,2,3;
 4/5=5,16=3,69=1/1;
 5/5=2,38=5/2;
 7//1,2,3,16;
 1/14=-1,18=20,19=15,26=3/3(-5);
 2/9=110/2;
 6/7=2,8=2,9=2,10=2,19=2,28=1/1;
 99/9=1/99;
 -------------------
 Title Card Required
 -------------------
 Symbolic Z-matrix:
 Charge =  0 Multiplicity = 1
 79                   0     2.70066  -0.28501  -0.31971 
 15                   0     4.00216   1.54816   0.58526 
 6                    0     5.79902   1.1645    0.33383 
 1                    0     5.96537   1.19483  -0.75036 
 1                    0     5.89303   0.11414   0.62975 
 6                    0     3.72609   1.68711   2.40726 
 1                    0     4.36702   2.48664   2.79561 
 1                    0     4.08281   0.74031   2.82851 
 6                    0     3.62519   3.19996  -0.17051 
 1                    0     2.5366    3.24256  -0.27712 
 1                    0     4.02013   3.1567   -1.19304 
 6                    0     6.83757   2.02331   1.06986 
 1                    0     6.83025   3.06685   0.74427 
 1                    0     6.69015   2.00136   2.15398 
 1                    0     7.83785   1.62428   0.8693 
 6                    0     4.12654   4.45692   0.55785 
 1                    0     3.7968    5.34811   0.01243 
 1                    0     3.72341   4.52851   1.57312 
 1                    0     5.2169    4.4969    0.62392 
 6                    0     2.26006   1.92277   2.79607 
 1                    0     1.62452   1.09637   2.46297 
 1                    0     2.17118   1.99111   3.885 
 1                    0     1.86285   2.85084   2.37012 
 7                    0    -7.55414   3.23564   0.00259 
 6                    0    -6.14746   2.85771   0.13145 
 6                    0    -5.91467   1.37331  -0.18162 
 8                    0    -6.67126   0.54056   0.33918 
 6                    0    -5.70319   3.11863   1.59171 
 8                    0    -4.4128    2.63212   1.88185 
 7                    0    -4.91304   0.96602  -1.01454 
 6                    0    -3.98325   1.77415  -1.78838 
 6                    0    -2.70371   2.15004  -1.02039 
 8                    0    -2.68868   3.1565   -0.30861 
 7                    0    -1.59928   1.3624   -1.13624 
 6                    0    -1.32196   0.23928  -2.02307 
 6                    0    -1.52982  -1.17451  -1.43701 
 8                    0    -1.93156  -2.04573  -2.20262 
 6                    0     0.07534   0.41552  -2.68812 
 16                   0     1.45008   1.1619   -1.70867 
 7                    0    -1.27473  -1.39288  -0.11541 
 6                    0    -0.89563  -2.743     0.32338 
 6                    0     0.63577  -2.88396   0.45954 
 6                    0    -1.56102  -3.05845   1.67938 
 8                    0    -0.9343   -2.93333   2.72487 
 7                    0    -2.84367  -3.53502   1.66081 
 6                    0    -3.82993  -3.38155   0.60667 
 6                    0    -4.88782  -2.36006   1.02128 
 8                    0    -5.12568  -2.08553   2.17641 
 8                    0    -5.53329  -1.85279  -0.04029 
 1                    0    -5.80866   4.19704   1.78081 
 1                    0    -6.39105   2.58896   2.25877 
 1                    0    -3.78104   3.07256   1.2839 
 1                    0    -5.55629   3.50407  -0.52258 
 1                    0    -8.11339   2.52294   0.47234 
 1                    0    -7.83719   3.21659  -0.97598 
 1                    0    -4.45255   2.71866  -2.06511 
 1                    0    -3.76553   1.23833  -2.71619 
 1                    0    -4.81174  -0.0432   -1.07883 
 1                    0    -0.04167   1.20564  -3.4405 
 1                    0     0.36867  -0.50413  -3.1948 
 1                    0    -2.0249    0.2392   -2.85951 
 1                    0    -0.78913   1.731    -0.63976 
 1                    0     0.92464  -3.91207   0.68227 
 1                    0     0.98196  -2.26893   1.29017 
 1                    0    -1.26533  -3.41851  -0.44925 
 1                    0    -0.9025   -0.62458   0.43138 
 1                    0    -4.34551  -4.33728   0.43208 
 1                    0    -3.36933  -3.09302  -0.33857 
 1                    0    -3.24885  -3.57928   2.59206 
 1                    0    -6.14875  -1.12182   0.26178 
 34                   0     1.58034  -2.3298   -1.20564 
 17                   0     3.96906  -1.75253   1.08904 
 

 GradGradGradGradGradGradGradGradGradGradGradGradGradGradGradGradGradGrad
 Berny optimization.
 Initialization pass.
                           ----------------------------
                           !    Initial Parameters    !
                           ! (Angstroms and Degrees)  !
 --------------------------                            --------------------------
 ! Name  Definition              Value          Derivative Info.                !
 --------------------------------------------------------------------------------
 ! R1    R(1,2)                  2.4235         estimate D2E/DX2                !
 ! R2    R(1,39)                 2.3636         estimate D2E/DX2                !
 ! R3    R(1,71)                 2.4942         estimate D2E/DX2                !
 ! R4    R(1,72)                 2.3973         estimate D2E/DX2                !
 ! R5    R(2,3)                  1.8545         estimate D2E/DX2                !
 ! R6    R(2,6)                  1.848          estimate D2E/DX2                !
 ! R7    R(2,9)                  1.8552         estimate D2E/DX2                !
 ! R8    R(3,4)                  1.0973         estimate D2E/DX2                !
 ! R9    R(3,5)                  1.0953         estimate D2E/DX2                !
 ! R10   R(3,12)                 1.5355         estimate D2E/DX2                !
 ! R11   R(6,7)                  1.0958         estimate D2E/DX2                !
 ! R12   R(6,8)                  1.096          estimate D2E/DX2                !
 ! R13   R(6,20)                 1.5349         estimate D2E/DX2                !
 ! R14   R(9,10)                 1.0946         estimate D2E/DX2                !
 ! R15   R(9,11)                 1.097          estimate D2E/DX2                !
 ! R16   R(9,16)                 1.5368         estimate D2E/DX2                !
 ! R17   R(12,13)                1.0932         estimate D2E/DX2                !
 ! R18   R(12,14)                1.0943         estimate D2E/DX2                !
 ! R19   R(12,15)                1.0954         estimate D2E/DX2                !
 ! R20   R(16,17)                1.0957         estimate D2E/DX2                !
 ! R21   R(16,18)                1.0947         estimate D2E/DX2                !
 ! R22   R(16,19)                1.0931         estimate D2E/DX2                !
 ! R23   R(20,21)                1.0944         estimate D2E/DX2                !
 ! R24   R(20,22)                1.0947         estimate D2E/DX2                !
 ! R25   R(20,23)                1.0957         estimate D2E/DX2                !
 ! R26   R(24,25)                1.4623         estimate D2E/DX2                !
 ! R27   R(24,54)                1.0205         estimate D2E/DX2                !
 ! R28   R(24,55)                1.0189         estimate D2E/DX2                !
 ! R29   R(25,26)                1.5348         estimate D2E/DX2                !
 ! R30   R(25,28)                1.5485         estimate D2E/DX2                !
 ! R31   R(25,53)                1.0932         estimate D2E/DX2                !
 ! R32   R(26,27)                1.2398         estimate D2E/DX2                !
 ! R33   R(26,30)                1.3649         estimate D2E/DX2                !
 ! R34   R(28,29)                1.4092         estimate D2E/DX2                !
 ! R35   R(28,50)                1.0999         estimate D2E/DX2                !
 ! R36   R(28,51)                1.0948         estimate D2E/DX2                !
 ! R37   R(29,52)                0.975          estimate D2E/DX2                !
 ! R38   R(30,31)                1.4548         estimate D2E/DX2                !
 ! R39   R(30,58)                1.0163         estimate D2E/DX2                !
 ! R40   R(31,32)                1.5389         estimate D2E/DX2                !
 ! R41   R(31,56)                1.0904         estimate D2E/DX2                !
 ! R42   R(31,57)                1.0933         estimate D2E/DX2                !
 ! R43   R(32,33)                1.2328         estimate D2E/DX2                !
 ! R44   R(32,34)                1.3615         estimate D2E/DX2                !
 ! R45   R(34,35)                1.4577         estimate D2E/DX2                !
 ! R46   R(34,62)                1.0192         estimate D2E/DX2                !
 ! R47   R(35,36)                1.5445         estimate D2E/DX2                !
 ! R48   R(35,38)                1.5575         estimate D2E/DX2                !
 ! R49   R(35,61)                1.0926         estimate D2E/DX2                !
 ! R50   R(36,37)                1.2274         estimate D2E/DX2                !
 ! R51   R(36,40)                1.3636         estimate D2E/DX2                !
 ! R52   R(38,39)                1.8456         estimate D2E/DX2                !
 ! R53   R(38,59)                1.0973         estimate D2E/DX2                !
 ! R54   R(38,60)                1.0902         estimate D2E/DX2                !
 ! R55   R(40,41)                1.4694         estimate D2E/DX2                !
 ! R56   R(40,66)                1.0138         estimate D2E/DX2                !
 ! R57   R(41,42)                1.5439         estimate D2E/DX2                !
 ! R58   R(41,43)                1.543          estimate D2E/DX2                !
 ! R59   R(41,65)                1.0908         estimate D2E/DX2                !
 ! R60   R(42,63)                1.0909         estimate D2E/DX2                !
 ! R61   R(42,64)                1.09           estimate D2E/DX2                !
 ! R62   R(42,71)                1.993          estimate D2E/DX2                !
 ! R63   R(43,44)                1.2254         estimate D2E/DX2                !
 ! R64   R(43,45)                1.3685         estimate D2E/DX2                !
 ! R65   R(45,46)                1.4517         estimate D2E/DX2                !
 ! R66   R(45,69)                1.0165         estimate D2E/DX2                !
 ! R67   R(46,47)                1.5279         estimate D2E/DX2                !
 ! R68   R(46,67)                1.0999         estimate D2E/DX2                !
 ! R69   R(46,68)                1.0904         estimate D2E/DX2                !
 ! R70   R(47,48)                1.2109         estimate D2E/DX2                !
 ! R71   R(47,49)                1.342          estimate D2E/DX2                !
 ! R72   R(49,70)                1.0022         estimate D2E/DX2                !
 ! A1    A(2,1,39)              92.323          estimate D2E/DX2                !
 ! A2    A(2,1,72)              87.677          estimate D2E/DX2                !
 ! A3    A(39,1,71)             93.1802         estimate D2E/DX2                !
 ! A4    A(71,1,72)             86.8198         estimate D2E/DX2                !
 ! A5    A(1,2,3)              108.2541         estimate D2E/DX2                !
 ! A6    A(1,2,6)              110.1698         estimate D2E/DX2                !
 ! A7    A(1,2,9)              114.3454         estimate D2E/DX2                !
 ! A8    A(3,2,6)              107.0959         estimate D2E/DX2                !
 ! A9    A(3,2,9)              109.0172         estimate D2E/DX2                !
 ! A10   A(6,2,9)              107.7184         estimate D2E/DX2                !
 ! A11   A(2,3,4)              105.9699         estimate D2E/DX2                !
 ! A12   A(2,3,5)              104.1778         estimate D2E/DX2                !
 ! A13   A(2,3,12)             118.3358         estimate D2E/DX2                !
 ! A14   A(4,3,5)              106.2859         estimate D2E/DX2                !
 ! A15   A(4,3,12)             110.8309         estimate D2E/DX2                !
 ! A16   A(5,3,12)             110.4135         estimate D2E/DX2                !
 ! A17   A(2,6,7)              108.474          estimate D2E/DX2                !
 ! A18   A(2,6,8)              105.3889         estimate D2E/DX2                !
 ! A19   A(2,6,20)             113.8265         estimate D2E/DX2                !
 ! A20   A(7,6,8)              107.6812         estimate D2E/DX2                !
 ! A21   A(7,6,20)             110.907          estimate D2E/DX2                !
 ! A22   A(8,6,20)             110.2524         estimate D2E/DX2                !
 ! A23   A(2,9,10)             106.0455         estimate D2E/DX2                !
 ! A24   A(2,9,11)             105.7508         estimate D2E/DX2                !
 ! A25   A(2,9,16)             117.9606         estimate D2E/DX2                !
 ! A26   A(10,9,11)            105.592          estimate D2E/DX2                !
 ! A27   A(10,9,16)            109.8015         estimate D2E/DX2                !
 ! A28   A(11,9,16)            110.89           estimate D2E/DX2                !
 ! A29   A(3,12,13)            112.7435         estimate D2E/DX2                !
 ! A30   A(3,12,14)            111.872          estimate D2E/DX2                !
 ! A31   A(3,12,15)            109.0327         estimate D2E/DX2                !
 ! A32   A(13,12,14)           108.2584         estimate D2E/DX2                !
 ! A33   A(13,12,15)           107.4156         estimate D2E/DX2                !
 ! A34   A(14,12,15)           107.2821         estimate D2E/DX2                !
 ! A35   A(9,16,17)            109.3392         estimate D2E/DX2                !
 ! A36   A(9,16,18)            111.8944         estimate D2E/DX2                !
 ! A37   A(9,16,19)            112.5799         estimate D2E/DX2                !
 ! A38   A(17,16,18)           107.3174         estimate D2E/DX2                !
 ! A39   A(17,16,19)           107.4896         estimate D2E/DX2                !
 ! A40   A(18,16,19)           107.9924         estimate D2E/DX2                !
 ! A41   A(6,20,21)            111.1989         estimate D2E/DX2                !
 ! A42   A(6,20,22)            109.8221         estimate D2E/DX2                !
 ! A43   A(6,20,23)            112.1991         estimate D2E/DX2                !
 ! A44   A(21,20,22)           107.6228         estimate D2E/DX2                !
 ! A45   A(21,20,23)           108.1047         estimate D2E/DX2                !
 ! A46   A(22,20,23)           107.7218         estimate D2E/DX2                !
 ! A47   A(25,24,54)           107.8265         estimate D2E/DX2                !
 ! A48   A(25,24,55)           110.3071         estimate D2E/DX2                !
 ! A49   A(54,24,55)           106.0707         estimate D2E/DX2                !
 ! A50   A(24,25,26)           112.2034         estimate D2E/DX2                !
 ! A51   A(24,25,28)           108.3946         estimate D2E/DX2                !
 ! A52   A(24,25,53)           108.3426         estimate D2E/DX2                !
 ! A53   A(26,25,28)           108.1682         estimate D2E/DX2                !
 ! A54   A(26,25,53)           111.5791         estimate D2E/DX2                !
 ! A55   A(28,25,53)           108.0239         estimate D2E/DX2                !
 ! A56   A(25,26,27)           118.1232         estimate D2E/DX2                !
 ! A57   A(25,26,30)           121.627          estimate D2E/DX2                !
 ! A58   A(27,26,30)           120.2484         estimate D2E/DX2                !
 ! A59   A(25,28,29)           113.4966         estimate D2E/DX2                !
 ! A60   A(25,28,50)           107.4464         estimate D2E/DX2                !
 ! A61   A(25,28,51)           108.2272         estimate D2E/DX2                !
 ! A62   A(29,28,50)           113.0091         estimate D2E/DX2                !
 ! A63   A(29,28,51)           106.4293         estimate D2E/DX2                !
 ! A64   A(50,28,51)           108.0187         estimate D2E/DX2                !
 ! A65   A(28,29,52)           108.1247         estimate D2E/DX2                !
 ! A66   A(26,30,31)           128.8933         estimate D2E/DX2                !
 ! A67   A(26,30,58)           114.0835         estimate D2E/DX2                !
 ! A68   A(31,30,58)           117.0172         estimate D2E/DX2                !
 ! A69   A(30,31,32)           113.6799         estimate D2E/DX2                !
 ! A70   A(30,31,56)           109.9443         estimate D2E/DX2                !
 ! A71   A(30,31,57)           107.8447         estimate D2E/DX2                !
 ! A72   A(32,31,56)           105.8388         estimate D2E/DX2                !
 ! A73   A(32,31,57)           112.1869         estimate D2E/DX2                !
 ! A74   A(56,31,57)           107.1486         estimate D2E/DX2                !
 ! A75   A(31,32,33)           119.846          estimate D2E/DX2                !
 ! A76   A(31,32,34)           119.3868         estimate D2E/DX2                !
 ! A77   A(33,32,34)           120.7672         estimate D2E/DX2                !
 ! A78   A(32,34,35)           130.6818         estimate D2E/DX2                !
 ! A79   A(32,34,62)           113.2133         estimate D2E/DX2                !
 ! A80   A(35,34,62)           115.0752         estimate D2E/DX2                !
 ! A81   A(34,35,36)           116.669          estimate D2E/DX2                !
 ! A82   A(34,35,38)           110.0766         estimate D2E/DX2                !
 ! A83   A(34,35,61)           110.0856         estimate D2E/DX2                !
 ! A84   A(36,35,38)           112.7269         estimate D2E/DX2                !
 ! A85   A(36,35,61)           101.7612         estimate D2E/DX2                !
 ! A86   A(38,35,61)           104.4956         estimate D2E/DX2                !
 ! A87   A(35,36,37)           117.1991         estimate D2E/DX2                !
 ! A88   A(35,36,40)           119.2865         estimate D2E/DX2                !
 ! A89   A(37,36,40)           123.512          estimate D2E/DX2                !
 ! A90   A(35,38,39)           119.1703         estimate D2E/DX2                !
 ! A91   A(35,38,59)           106.1763         estimate D2E/DX2                !
 ! A92   A(35,38,60)           110.1443         estimate D2E/DX2                !
 ! A93   A(39,38,59)            98.7492         estimate D2E/DX2                !
 ! A94   A(39,38,60)           112.7912         estimate D2E/DX2                !
 ! A95   A(59,38,60)           108.5078         estimate D2E/DX2                !
 ! A96   A(1,39,38)            117.284          estimate D2E/DX2                !
 ! A97   A(36,40,41)           119.0015         estimate D2E/DX2                !
 ! A98   A(36,40,66)           118.0376         estimate D2E/DX2                !
 ! A99   A(41,40,66)           116.1386         estimate D2E/DX2                !
 ! A100  A(40,41,42)           111.4777         estimate D2E/DX2                !
 ! A101  A(40,41,43)           109.8162         estimate D2E/DX2                !
 ! A102  A(40,41,65)           105.6668         estimate D2E/DX2                !
 ! A103  A(42,41,43)           109.3638         estimate D2E/DX2                !
 ! A104  A(42,41,65)           110.0049         estimate D2E/DX2                !
 ! A105  A(43,41,65)           110.4682         estimate D2E/DX2                !
 ! A106  A(41,42,63)           111.5127         estimate D2E/DX2                !
 ! A107  A(41,42,64)           109.3134         estimate D2E/DX2                !
 ! A108  A(41,42,71)           111.7793         estimate D2E/DX2                !
 ! A109  A(63,42,64)           106.9831         estimate D2E/DX2                !
 ! A110  A(63,42,71)           107.8866         estimate D2E/DX2                !
 ! A111  A(64,42,71)           109.2251         estimate D2E/DX2                !
 ! A112  A(41,43,44)           120.555          estimate D2E/DX2                !
 ! A113  A(41,43,45)           117.6103         estimate D2E/DX2                !
 ! A114  A(44,43,45)           121.7712         estimate D2E/DX2                !
 ! A115  A(43,45,46)           127.5762         estimate D2E/DX2                !
 ! A116  A(43,45,69)           112.1067         estimate D2E/DX2                !
 ! A117  A(46,45,69)           113.5169         estimate D2E/DX2                !
 ! A118  A(45,46,47)           110.1222         estimate D2E/DX2                !
 ! A119  A(45,46,67)           109.9909         estimate D2E/DX2                !
 ! A120  A(45,46,68)           111.7455         estimate D2E/DX2                !
 ! A121  A(47,46,67)           107.4245         estimate D2E/DX2                !
 ! A122  A(47,46,68)           110.5369         estimate D2E/DX2                !
 ! A123  A(67,46,68)           106.8786         estimate D2E/DX2                !
 ! A124  A(46,47,48)           123.1236         estimate D2E/DX2                !
 ! A125  A(46,47,49)           111.7824         estimate D2E/DX2                !
 ! A126  A(48,47,49)           125.0603         estimate D2E/DX2                !
 ! A127  A(47,49,70)           109.4305         estimate D2E/DX2                !
 ! A128  A(1,71,42)             98.2829         estimate D2E/DX2                !
 ! A129  L(2,1,71,72,-1)       174.4968         estimate D2E/DX2                !
 ! A130  L(39,1,72,71,-1)      180.0            estimate D2E/DX2                !
 ! A131  L(2,1,71,72,-2)       183.0648         estimate D2E/DX2                !
 ! A132  L(39,1,72,71,-2)      180.0            estimate D2E/DX2                !
 ! D1    D(39,1,2,3)          -125.1967         estimate D2E/DX2                !
 ! D2    D(39,1,2,6)           118.0            estimate D2E/DX2                !
 ! D3    D(39,1,2,9)            -3.4714         estimate D2E/DX2                !
 ! D4    D(72,1,2,3)            54.8033         estimate D2E/DX2                !
 ! D5    D(72,1,2,6)           -62.0            estimate D2E/DX2                !
 ! D6    D(72,1,2,9)           176.5286         estimate D2E/DX2                !
 ! D7    D(3,2,71,42)          119.9177         estimate D2E/DX2                !
 ! D8    D(6,2,71,42)            4.7043         estimate D2E/DX2                !
 ! D9    D(9,2,71,42)         -118.7789         estimate D2E/DX2                !
 ! D10   D(2,1,39,38)         -175.6871         estimate D2E/DX2                !
 ! D11   D(71,1,39,38)           7.3778         estimate D2E/DX2                !
 ! D12   D(39,1,71,42)        -114.0357         estimate D2E/DX2                !
 ! D13   D(72,1,71,42)          65.9643         estimate D2E/DX2                !
 ! D14   D(1,2,3,4)             67.2678         estimate D2E/DX2                !
 ! D15   D(1,2,3,5)            -44.6421         estimate D2E/DX2                !
 ! D16   D(1,2,3,12)          -167.6634         estimate D2E/DX2                !
 ! D17   D(6,2,3,4)           -173.9617         estimate D2E/DX2                !
 ! D18   D(6,2,3,5)             74.1284         estimate D2E/DX2                !
 ! D19   D(6,2,3,12)           -48.8929         estimate D2E/DX2                !
 ! D20   D(9,2,3,4)            -57.6794         estimate D2E/DX2                !
 ! D21   D(9,2,3,5)           -169.5892         estimate D2E/DX2                !
 ! D22   D(9,2,3,12)            67.3894         estimate D2E/DX2                !
 ! D23   D(1,2,6,7)            176.9668         estimate D2E/DX2                !
 ! D24   D(1,2,6,8)             61.874          estimate D2E/DX2                !
 ! D25   D(1,2,6,20)           -59.0583         estimate D2E/DX2                !
 ! D26   D(3,2,6,7)             59.4442         estimate D2E/DX2                !
 ! D27   D(3,2,6,8)            -55.6486         estimate D2E/DX2                !
 ! D28   D(3,2,6,20)          -176.5809         estimate D2E/DX2                !
 ! D29   D(9,2,6,7)            -57.6953         estimate D2E/DX2                !
 ! D30   D(9,2,6,8)           -172.7881         estimate D2E/DX2                !
 ! D31   D(9,2,6,20)            66.2797         estimate D2E/DX2                !
 ! D32   D(1,2,9,10)            41.5814         estimate D2E/DX2                !
 ! D33   D(1,2,9,11)           -70.2396         estimate D2E/DX2                !
 ! D34   D(1,2,9,16)           165.0683         estimate D2E/DX2                !
 ! D35   D(3,2,9,10)           162.887          estimate D2E/DX2                !
 ! D36   D(3,2,9,11)            51.0659         estimate D2E/DX2                !
 ! D37   D(3,2,9,16)           -73.6261         estimate D2E/DX2                !
 ! D38   D(6,2,9,10)           -81.2293         estimate D2E/DX2                !
 ! D39   D(6,2,9,11)           166.9496         estimate D2E/DX2                !
 ! D40   D(6,2,9,16)            42.2576         estimate D2E/DX2                !
 ! D41   D(2,3,12,13)          -64.6857         estimate D2E/DX2                !
 ! D42   D(2,3,12,14)           57.6139         estimate D2E/DX2                !
 ! D43   D(2,3,12,15)          176.1108         estimate D2E/DX2                !
 ! D44   D(4,3,12,13)           57.9722         estimate D2E/DX2                !
 ! D45   D(4,3,12,14)         -179.7281         estimate D2E/DX2                !
 ! D46   D(4,3,12,15)          -61.2313         estimate D2E/DX2                !
 ! D47   D(5,3,12,13)          175.4723         estimate D2E/DX2                !
 ! D48   D(5,3,12,14)          -62.228          estimate D2E/DX2                !
 ! D49   D(5,3,12,15)           56.2688         estimate D2E/DX2                !
 ! D50   D(2,6,20,21)           60.793          estimate D2E/DX2                !
 ! D51   D(2,6,20,22)          179.8041         estimate D2E/DX2                !
 ! D52   D(2,6,20,23)          -60.423          estimate D2E/DX2                !
 ! D53   D(7,6,20,21)         -176.5571         estimate D2E/DX2                !
 ! D54   D(7,6,20,22)          -57.546          estimate D2E/DX2                !
 ! D55   D(7,6,20,23)           62.2269         estimate D2E/DX2                !
 ! D56   D(8,6,20,21)          -57.3808         estimate D2E/DX2                !
 ! D57   D(8,6,20,22)           61.6303         estimate D2E/DX2                !
 ! D58   D(8,6,20,23)         -178.5968         estimate D2E/DX2                !
 ! D59   D(2,9,16,17)         -177.9574         estimate D2E/DX2                !
 ! D60   D(2,9,16,18)          -59.2044         estimate D2E/DX2                !
 ! D61   D(2,9,16,19)           62.6432         estimate D2E/DX2                !
 ! D62   D(10,9,16,17)         -56.3754         estimate D2E/DX2                !
 ! D63   D(10,9,16,18)          62.3776         estimate D2E/DX2                !
 ! D64   D(10,9,16,19)        -175.7748         estimate D2E/DX2                !
 ! D65   D(11,9,16,17)          59.9325         estimate D2E/DX2                !
 ! D66   D(11,9,16,18)         178.6855         estimate D2E/DX2                !
 ! D67   D(11,9,16,19)         -59.4669         estimate D2E/DX2                !
 ! D68   D(54,24,25,26)         45.8318         estimate D2E/DX2                !
 ! D69   D(54,24,25,28)        -73.5515         estimate D2E/DX2                !
 ! D70   D(54,24,25,53)        169.4618         estimate D2E/DX2                !
 ! D71   D(55,24,25,26)        -69.5758         estimate D2E/DX2                !
 ! D72   D(55,24,25,28)        171.041          estimate D2E/DX2                !
 ! D73   D(55,24,25,53)         54.0543         estimate D2E/DX2                !
 ! D74   D(24,25,26,27)        -47.2209         estimate D2E/DX2                !
 ! D75   D(24,25,26,30)        132.3581         estimate D2E/DX2                !
 ! D76   D(28,25,26,27)         72.2948         estimate D2E/DX2                !
 ! D77   D(28,25,26,30)       -108.1262         estimate D2E/DX2                !
 ! D78   D(53,25,26,27)       -169.0207         estimate D2E/DX2                !
 ! D79   D(53,25,26,30)         10.5583         estimate D2E/DX2                !
 ! D80   D(24,25,28,29)        172.3179         estimate D2E/DX2                !
 ! D81   D(24,25,28,50)        -61.9923         estimate D2E/DX2                !
 ! D82   D(24,25,28,51)         54.4223         estimate D2E/DX2                !
 ! D83   D(26,25,28,29)         50.429          estimate D2E/DX2                !
 ! D84   D(26,25,28,50)        176.1189         estimate D2E/DX2                !
 ! D85   D(26,25,28,51)        -67.4665         estimate D2E/DX2                !
 ! D86   D(53,25,28,29)        -70.4908         estimate D2E/DX2                !
 ! D87   D(53,25,28,50)         55.1991         estimate D2E/DX2                !
 ! D88   D(53,25,28,51)        171.6137         estimate D2E/DX2                !
 ! D89   D(25,26,30,31)         -4.0574         estimate D2E/DX2                !
 ! D90   D(25,26,30,58)        175.0215         estimate D2E/DX2                !
 ! D91   D(27,26,30,31)        175.5128         estimate D2E/DX2                !
 ! D92   D(27,26,30,58)         -5.4083         estimate D2E/DX2                !
 ! D93   D(25,28,29,52)         59.654          estimate D2E/DX2                !
 ! D94   D(50,28,29,52)        -63.0158         estimate D2E/DX2                !
 ! D95   D(51,28,29,52)        178.5864         estimate D2E/DX2                !
 ! D96   D(26,30,31,32)         88.438          estimate D2E/DX2                !
 ! D97   D(26,30,31,56)        -29.9979         estimate D2E/DX2                !
 ! D98   D(26,30,31,57)       -146.5065         estimate D2E/DX2                !
 ! D99   D(58,30,31,32)        -90.6181         estimate D2E/DX2                !
 ! D100  D(58,30,31,56)        150.946          estimate D2E/DX2                !
 ! D101  D(58,30,31,57)         34.4374         estimate D2E/DX2                !
 ! D102  D(30,31,32,33)        -86.7024         estimate D2E/DX2                !
 ! D103  D(30,31,32,34)         93.2531         estimate D2E/DX2                !
 ! D104  D(56,31,32,33)         34.067          estimate D2E/DX2                !
 ! D105  D(56,31,32,34)       -145.9775         estimate D2E/DX2                !
 ! D106  D(57,31,32,33)        150.5989         estimate D2E/DX2                !
 ! D107  D(57,31,32,34)        -29.4456         estimate D2E/DX2                !
 ! D108  D(31,32,34,35)          8.5055         estimate D2E/DX2                !
 ! D109  D(31,32,34,62)        176.1243         estimate D2E/DX2                !
 ! D110  D(33,32,34,35)       -171.5395         estimate D2E/DX2                !
 ! D111  D(33,32,34,62)         -3.9207         estimate D2E/DX2                !
 ! D112  D(32,34,35,36)        -98.1039         estimate D2E/DX2                !
 ! D113  D(32,34,35,38)        131.8146         estimate D2E/DX2                !
 ! D114  D(32,34,35,61)         17.1439         estimate D2E/DX2                !
 ! D115  D(62,34,35,36)         94.4619         estimate D2E/DX2                !
 ! D116  D(62,34,35,38)        -35.6196         estimate D2E/DX2                !
 ! D117  D(62,34,35,61)       -150.2903         estimate D2E/DX2                !
 ! D118  D(34,35,36,37)        146.0046         estimate D2E/DX2                !
 ! D119  D(34,35,36,40)        -33.4588         estimate D2E/DX2                !
 ! D120  D(38,35,36,37)        -85.1764         estimate D2E/DX2                !
 ! D121  D(38,35,36,40)         95.3602         estimate D2E/DX2                !
 ! D122  D(61,35,36,37)         26.1946         estimate D2E/DX2                !
 ! D123  D(61,35,36,40)       -153.2688         estimate D2E/DX2                !
 ! D124  D(34,35,38,39)         36.4046         estimate D2E/DX2                !
 ! D125  D(34,35,38,59)        -73.6738         estimate D2E/DX2                !
 ! D126  D(34,35,38,60)        169.0382         estimate D2E/DX2                !
 ! D127  D(36,35,38,39)        -95.7543         estimate D2E/DX2                !
 ! D128  D(36,35,38,59)        154.1673         estimate D2E/DX2                !
 ! D129  D(36,35,38,60)         36.8793         estimate D2E/DX2                !
 ! D130  D(61,35,38,39)        154.5789         estimate D2E/DX2                !
 ! D131  D(61,35,38,59)         44.5005         estimate D2E/DX2                !
 ! D132  D(61,35,38,60)        -72.7875         estimate D2E/DX2                !
 ! D133  D(35,36,40,41)       -153.471          estimate D2E/DX2                !
 ! D134  D(35,36,40,66)         -3.4858         estimate D2E/DX2                !
 ! D135  D(37,36,40,41)         27.1014         estimate D2E/DX2                !
 ! D136  D(37,36,40,66)        177.0866         estimate D2E/DX2                !
 ! D137  D(35,38,39,1)          84.903          estimate D2E/DX2                !
 ! D138  D(59,38,39,1)        -160.9724         estimate D2E/DX2                !
 ! D139  D(60,38,39,1)         -46.5767         estimate D2E/DX2                !
 ! D140  D(36,40,41,42)         97.6358         estimate D2E/DX2                !
 ! D141  D(36,40,41,43)       -140.9975         estimate D2E/DX2                !
 ! D142  D(36,40,41,65)        -21.8472         estimate D2E/DX2                !
 ! D143  D(66,40,41,42)        -52.9044         estimate D2E/DX2                !
 ! D144  D(66,40,41,43)         68.4624         estimate D2E/DX2                !
 ! D145  D(66,40,41,65)       -172.3873         estimate D2E/DX2                !
 ! D146  D(40,41,42,63)       -173.9879         estimate D2E/DX2                !
 ! D147  D(40,41,42,64)         67.9244         estimate D2E/DX2                !
 ! D148  D(40,41,42,71)        -53.1241         estimate D2E/DX2                !
 ! D149  D(43,41,42,63)         64.3826         estimate D2E/DX2                !
 ! D150  D(43,41,42,64)        -53.7051         estimate D2E/DX2                !
 ! D151  D(43,41,42,71)       -174.7536         estimate D2E/DX2                !
 ! D152  D(65,41,42,63)        -57.1112         estimate D2E/DX2                !
 ! D153  D(65,41,42,64)       -175.1989         estimate D2E/DX2                !
 ! D154  D(65,41,42,71)         63.7527         estimate D2E/DX2                !
 ! D155  D(40,41,43,44)        -98.5602         estimate D2E/DX2                !
 ! D156  D(40,41,43,45)         84.2863         estimate D2E/DX2                !
 ! D157  D(42,41,43,44)         24.0663         estimate D2E/DX2                !
 ! D158  D(42,41,43,45)       -153.0872         estimate D2E/DX2                !
 ! D159  D(65,41,43,44)        145.2797         estimate D2E/DX2                !
 ! D160  D(65,41,43,45)        -31.8738         estimate D2E/DX2                !
 ! D161  D(41,42,71,1)         112.2907         estimate D2E/DX2                !
 ! D162  D(63,42,71,1)        -124.7597         estimate D2E/DX2                !
 ! D163  D(64,42,71,1)          -8.809          estimate D2E/DX2                !
 ! D164  D(41,43,45,46)        -22.3815         estimate D2E/DX2                !
 ! D165  D(41,43,45,69)       -171.2473         estimate D2E/DX2                !
 ! D166  D(44,43,45,46)        160.5019         estimate D2E/DX2                !
 ! D167  D(44,43,45,69)         11.6361         estimate D2E/DX2                !
 ! D168  D(43,45,46,47)       -105.8036         estimate D2E/DX2                !
 ! D169  D(43,45,46,67)        135.99           estimate D2E/DX2                !
 ! D170  D(43,45,46,68)         17.4524         estimate D2E/DX2                !
 ! D171  D(69,45,46,47)         42.7013         estimate D2E/DX2                !
 ! D172  D(69,45,46,67)        -75.5051         estimate D2E/DX2                !
 ! D173  D(69,45,46,68)        165.9574         estimate D2E/DX2                !
 ! D174  D(45,46,47,48)        -23.1123         estimate D2E/DX2                !
 ! D175  D(45,46,47,49)        158.9042         estimate D2E/DX2                !
 ! D176  D(67,46,47,48)         96.6627         estimate D2E/DX2                !
 ! D177  D(67,46,47,49)        -81.3208         estimate D2E/DX2                !
 ! D178  D(68,46,47,48)       -147.0716         estimate D2E/DX2                !
 ! D179  D(68,46,47,49)         34.945          estimate D2E/DX2                !
 ! D180  D(46,47,49,70)       -174.1753         estimate D2E/DX2                !
 ! D181  D(48,47,49,70)          7.8879         estimate D2E/DX2                !
 --------------------------------------------------------------------------------
 Trust Radius=3.00D-01 FncErr=1.00D-07 GrdErr=1.00D-06
 Number of steps in this run=    395 maximum allowed number of steps=    432.
 GradGradGradGradGradGradGradGradGradGradGradGradGradGradGradGradGradGrad

 Stoichiometry    C19H36AuClN5O7PSSe
 Framework group  C1[X(C19H36AuClN5O7PSSe)]
 Deg. of freedom   210
 Full point group                 C1      NOp   1
 Largest Abelian subgroup         C1      NOp   1
 Largest concise Abelian subgroup C1      NOp   1
                         Standard orientation:                         
 ---------------------------------------------------------------------
 Center     Atomic      Atomic             Coordinates (Angstroms)
 Number     Number       Type             X           Y           Z
 ---------------------------------------------------------------------
      1         79           0        2.700659   -0.285010   -0.319710
      2         15           0        4.002162    1.548159    0.585263
      3          6           0        5.799015    1.164504    0.333833
      4          1           0        5.965366    1.194829   -0.750359
      5          1           0        5.893028    0.114138    0.629746
      6          6           0        3.726088    1.687114    2.407263
      7          1           0        4.367024    2.486641    2.795606
      8          1           0        4.082811    0.740314    2.828512
      9          6           0        3.625186    3.199963   -0.170506
     10          1           0        2.536595    3.242556   -0.277115
     11          1           0        4.020126    3.156700   -1.193036
     12          6           0        6.837567    2.023306    1.069855
     13          1           0        6.830253    3.066854    0.744268
     14          1           0        6.690153    2.001358    2.153978
     15          1           0        7.837845    1.624280    0.869298
     16          6           0        4.126537    4.456917    0.557854
     17          1           0        3.796800    5.348114    0.012426
     18          1           0        3.723405    4.528506    1.573121
     19          1           0        5.216899    4.496898    0.623915
     20          6           0        2.260057    1.922772    2.796066
     21          1           0        1.624523    1.096366    2.462968
     22          1           0        2.171185    1.991110    3.884996
     23          1           0        1.862851    2.850842    2.370123
     24          7           0       -7.554142    3.235635    0.002593
     25          6           0       -6.147461    2.857713    0.131451
     26          6           0       -5.914671    1.373307   -0.181624
     27          8           0       -6.671264    0.540555    0.339176
     28          6           0       -5.703185    3.118632    1.591709
     29          8           0       -4.412798    2.632123    1.881852
     30          7           0       -4.913038    0.966023   -1.014540
     31          6           0       -3.983253    1.774150   -1.788375
     32          6           0       -2.703713    2.150042   -1.020386
     33          8           0       -2.688684    3.156503   -0.308612
     34          7           0       -1.599278    1.362400   -1.136244
     35          6           0       -1.321964    0.239284   -2.023066
     36          6           0       -1.529819   -1.174515   -1.437005
     37          8           0       -1.931556   -2.045730   -2.202624
     38          6           0        0.075340    0.415523   -2.688120
     39         16           0        1.450076    1.161899   -1.708671
     40          7           0       -1.274726   -1.392883   -0.115406
     41          6           0       -0.895628   -2.743003    0.323379
     42          6           0        0.635770   -2.883961    0.459540
     43          6           0       -1.561021   -3.058446    1.679375
     44          8           0       -0.934298   -2.933333    2.724870
     45          7           0       -2.843671   -3.535019    1.660808
     46          6           0       -3.829928   -3.381546    0.606674
     47          6           0       -4.887816   -2.360058    1.021285
     48          8           0       -5.125685   -2.085532    2.176408
     49          8           0       -5.533286   -1.852790   -0.040286
     50          1           0       -5.808656    4.197042    1.780807
     51          1           0       -6.391052    2.588964    2.258774
     52          1           0       -3.781040    3.072564    1.283903
     53          1           0       -5.556289    3.504068   -0.522579
     54          1           0       -8.113392    2.522937    0.472343
     55          1           0       -7.837186    3.216588   -0.975984
     56          1           0       -4.452551    2.718656   -2.065110
     57          1           0       -3.765532    1.238333   -2.716191
     58          1           0       -4.811736   -0.043203   -1.078835
     59          1           0       -0.041668    1.205637   -3.440497
     60          1           0        0.368666   -0.504125   -3.194802
     61          1           0       -2.024896    0.239195   -2.859506
     62          1           0       -0.789128    1.730997   -0.639759
     63          1           0        0.924639   -3.912074    0.682272
     64          1           0        0.981963   -2.268925    1.290169
     65          1           0       -1.265329   -3.418505   -0.449247
     66          1           0       -0.902495   -0.624583    0.431377
     67          1           0       -4.345515   -4.337278    0.432082
     68          1           0       -3.369335   -3.093017   -0.338572
     69          1           0       -3.248854   -3.579284    2.592062
     70          1           0       -6.148747   -1.121817    0.261781
     71         34           0        1.580339   -2.329803   -1.205637
     72         17           0        3.969056   -1.752529    1.089036
 ---------------------------------------------------------------------
 Rotational constants (GHZ):      0.1103595      0.0426790      0.0364659
 General basis read from cards:  (5D, 7F)
 ======================================================================================================
                                       Pseudopotential Parameters
 ======================================================================================================
  Center     Atomic      Valence      Angular      Power
  Number     Number     Electrons     Momentum     of R      Exponent        Coefficient   SO-Coeffient
 ======================================================================================================
    1         79           19
                                      G and up 
                                                     1      622.6287956      -60.00000000    0.00000000
                                                     2      136.2843607     -555.52923120    0.00000000
                                                     2       33.1549781     -168.00197850    0.00000000
                                                     2        9.9894895      -63.03998750    0.00000000
                                                     2        3.0481312       -4.25166810    0.00000000
                                      S - G
                                                     0      194.7374304        3.00000000    0.00000000
                                                     1      351.5327447       38.60208800    0.00000000
                                                     2      122.3270402      864.83707270    0.00000000
                                                     2       32.0914617      374.99355200    0.00000000
                                                     2        5.2451812      289.79101000    0.00000000
                                                     2        4.4916223     -152.45327730    0.00000000
                                      P - G
                                                     0      420.6158801        2.00000000    0.00000000
                                                     1      109.4417815       73.88856250    0.00000000
                                                     2       34.1714280      326.67298720    0.00000000
                                                     2        5.9879750      126.58145910    0.00000000
                                      D - G
                                                     0      219.2666158        3.00000000    0.00000000
                                                     1      122.7297786       55.67931490    0.00000000
                                                     2       63.1063369      449.19873350    0.00000000
                                                     2       18.3684520      215.02690910    0.00000000
                                                     2        4.4972844       64.08409950    0.00000000
                                      F - G
                                                     0      108.5506037        4.00000000    0.00000000
                                                     1       56.4795527       51.80653350    0.00000000
                                                     2       29.2069159      231.21831130    0.00000000
                                                     2        9.5440543      119.00473860    0.00000000
                                                     2        2.8965118       15.34241880    0.00000000
    2         15
                                   No pseudopotential on this center.
    3          6
                                   No pseudopotential on this center.
    4          1
                                   No pseudopotential on this center.
    5          1
                                   No pseudopotential on this center.
    6          6
                                   No pseudopotential on this center.
    7          1
                                   No pseudopotential on this center.
    8          1
                                   No pseudopotential on this center.
    9          6
                                   No pseudopotential on this center.
   10          1
                                   No pseudopotential on this center.
   11          1
                                   No pseudopotential on this center.
   12          6
                                   No pseudopotential on this center.
   13          1
                                   No pseudopotential on this center.
   14          1
                                   No pseudopotential on this center.
   15          1
                                   No pseudopotential on this center.
   16          6
                                   No pseudopotential on this center.
   17          1
                                   No pseudopotential on this center.
   18          1
                                   No pseudopotential on this center.
   19          1
                                   No pseudopotential on this center.
   20          6
                                   No pseudopotential on this center.
   21          1
                                   No pseudopotential on this center.
   22          1
                                   No pseudopotential on this center.
   23          1
                                   No pseudopotential on this center.
   24          7
                                   No pseudopotential on this center.
   25          6
                                   No pseudopotential on this center.
   26          6
                                   No pseudopotential on this center.
   27          8
                                   No pseudopotential on this center.
   28          6
                                   No pseudopotential on this center.
   29          8
                                   No pseudopotential on this center.
   30          7
                                   No pseudopotential on this center.
   31          6
                                   No pseudopotential on this center.
   32          6
                                   No pseudopotential on this center.
   33          8
                                   No pseudopotential on this center.
   34          7
                                   No pseudopotential on this center.
   35          6
                                   No pseudopotential on this center.
   36          6
                                   No pseudopotential on this center.
   37          8
                                   No pseudopotential on this center.
   38          6
                                   No pseudopotential on this center.
   39         16
                                   No pseudopotential on this center.
   40          7
                                   No pseudopotential on this center.
   41          6
                                   No pseudopotential on this center.
   42          6
                                   No pseudopotential on this center.
   43          6
                                   No pseudopotential on this center.
   44          8
                                   No pseudopotential on this center.
   45          7
                                   No pseudopotential on this center.
   46          6
                                   No pseudopotential on this center.
   47          6
                                   No pseudopotential on this center.
   48          8
                                   No pseudopotential on this center.
   49          8
                                   No pseudopotential on this center.
   50          1
                                   No pseudopotential on this center.
   51          1
                                   No pseudopotential on this center.
   52          1
                                   No pseudopotential on this center.
   53          1
                                   No pseudopotential on this center.
   54          1
                                   No pseudopotential on this center.
   55          1
                                   No pseudopotential on this center.
   56          1
                                   No pseudopotential on this center.
   57          1
                                   No pseudopotential on this center.
   58          1
                                   No pseudopotential on this center.
   59          1
                                   No pseudopotential on this center.
   60          1
                                   No pseudopotential on this center.
   61          1
                                   No pseudopotential on this center.
   62          1
                                   No pseudopotential on this center.
   63          1
                                   No pseudopotential on this center.
   64          1
                                   No pseudopotential on this center.
   65          1
                                   No pseudopotential on this center.
   66          1
                                   No pseudopotential on this center.
   67          1
                                   No pseudopotential on this center.
   68          1
                                   No pseudopotential on this center.
   69          1
                                   No pseudopotential on this center.
   70          1
                                   No pseudopotential on this center.
   71         34
                                   No pseudopotential on this center.
   72         17
                                   No pseudopotential on this center.
 ======================================================================================================
 There are   672 symmetry adapted cartesian basis functions of A   symmetry.
 There are   630 symmetry adapted basis functions of A   symmetry.
   630 basis functions,  1299 primitive gaussians,   672 cartesian basis functions
   171 alpha electrons      171 beta electrons
       nuclear repulsion energy      6264.6423239870 Hartrees.
 NAtoms=   72 NActive=   72 NUniq=   72 SFac= 1.00D+00 NAtFMM=   60 NAOKFM=T Big=T
 Integral buffers will be    131072 words long.
 Raffenetti 2 integral format.
 Two-electron integral symmetry is turned on.
 One-electron integrals computed using PRISM.
   1 Symmetry operations used in ECPInt.
 ECPInt:  NShTT=   28203 NPrTT=  169893 LenC2=   20882 LenP2D=   65068.
 LDataN:  DoStor=T MaxTD1= 7 Len=  274
 NBasis=   630 RedAO= T EigKep=  2.13D-03  NBF=   630
 NBsUse=   630 1.00D-06 EigRej= -1.00D+00 NBFU=   630
 Defaulting to unpruned grid for atomic number  79.
 ExpMin= 2.79D-02 ExpMax= 5.61D+05 ExpMxC= 5.42D+03 IAcc=3 IRadAn=         5 AccDes= 0.00D+00
 Harris functional with IExCor=  402 and IRadAn=       5 diagonalized for initial guess.
 HarFok:  IExCor=  402 AccDes= 0.00D+00 IRadAn=         5 IDoV= 1 UseB2=F ITyADJ=14
 ICtDFT=  3500011 ScaDFX=  1.000000  1.000000  1.000000  1.000000
 Defaulting to unpruned grid for atomic number  79.
 Defaulting to unpruned grid for atomic number  79.
 Defaulting to unpruned grid for atomic number  79.
 Defaulting to unpruned grid for atomic number  79.
 Defaulting to unpruned grid for atomic number  79.
 Defaulting to unpruned grid for atomic number  79.
 Defaulting to unpruned grid for atomic number  79.
 Defaulting to unpruned grid for atomic number  79.
 Defaulting to unpruned grid for atomic number  79.
 Defaulting to unpruned grid for atomic number  79.
 Defaulting to unpruned grid for atomic number  79.
 Defaulting to unpruned grid for atomic number  79.
 FoFCou: FMM=F IPFlag=           0 FMFlag=      100000 FMFlg1=        2001
         NFxFlg=           0 DoJE=T BraDBF=F KetDBF=T FulRan=T
         wScrn=  0.000000 ICntrl=     500 IOpCl=  0 I1Cent=   200000004 NGrid=           0
         NMat0=    1 NMatS0=      1 NMatT0=    0 NMatD0=    1 NMtDS0=    0 NMtDT0=    0
 Petite list used in FoFCou.
 Requested convergence on RMS density matrix=1.00D-08 within 128 cycles.
 Requested convergence on MAX density matrix=1.00D-06.
 Requested convergence on             energy=1.00D-06.
 No special actions if energy rises.
 Defaulting to unpruned grid for atomic number  79.
 Defaulting to unpruned grid for atomic number  79.
 Defaulting to unpruned grid for atomic number  79.
 Defaulting to unpruned grid for atomic number  79.
 Defaulting to unpruned grid for atomic number  79.
 Defaulting to unpruned grid for atomic number  79.
 Defaulting to unpruned grid for atomic number  79.
 Defaulting to unpruned grid for atomic number  79.
 Defaulting to unpruned grid for atomic number  79.
 Defaulting to unpruned grid for atomic number  79.
 Defaulting to unpruned grid for atomic number  79.
 Defaulting to unpruned grid for atomic number  79.
 EnCoef did     3 forward-backward iterations
 EnCoef did     2 forward-backward iterations
 SCF Done:  E(RB3LYP) =  -5280.27080505     A.U. after   18 cycles
            NFock= 18  Conv=0.63D-08     -V/T= 2.0186

 **********************************************************************

            Population analysis using the SCF density.

 **********************************************************************

 Orbital symmetries:
       Occupied  (A) (A) (A) (A) (A) (A) (A) (A) (A) (A) (A) (A)
                 (A) (A) (A) (A) (A) (A) (A) (A) (A) (A) (A) (A)
                 (A) (A) (A) (A) (A) (A) (A) (A) (A) (A) (A) (A)
                 (A) (A) (A) (A) (A) (A) (A) (A) (A) (A) (A) (A)
                 (A) (A) (A) (A) (A) (A) (A) (A) (A) (A) (A) (A)
                 (A) (A) (A) (A) (A) (A) (A) (A) (A) (A) (A) (A)
                 (A) (A) (A) (A) (A) (A) (A) (A) (A) (A) (A) (A)
                 (A) (A) (A) (A) (A) (A) (A) (A) (A) (A) (A) (A)
                 (A) (A) (A) (A) (A) (A) (A) (A) (A) (A) (A) (A)
                 (A) (A) (A) (A) (A) (A) (A) (A) (A) (A) (A) (A)
                 (A) (A) (A) (A) (A) (A) (A) (A) (A) (A) (A) (A)
                 (A) (A) (A) (A) (A) (A) (A) (A) (A) (A) (A) (A)
                 (A) (A) (A) (A) (A) (A) (A) (A) (A) (A) (A) (A)
                 (A) (A) (A) (A) (A) (A) (A) (A) (A) (A) (A) (A)
                 (A) (A) (A)
       Virtual   (A) (A) (A) (A) (A) (A) (A) (A) (A) (A) (A) (A)
                 (A) (A) (A) (A) (A) (A) (A) (A) (A) (A) (A) (A)
                 (A) (A) (A) (A) (A) (A) (A) (A) (A) (A) (A) (A)
                 (A) (A) (A) (A) (A) (A) (A) (A) (A) (A) (A) (A)
                 (A) (A) (A) (A) (A) (A) (A) (A) (A) (A) (A) (A)
                 (A) (A) (A) (A) (A) (A) (A) (A) (A) (A) (A) (A)
                 (A) (A) (A) (A) (A) (A) (A) (A) (A) (A) (A) (A)
                 (A) (A) (A) (A) (A) (A) (A) (A) (A) (A) (A) (A)
                 (A) (A) (A) (A) (A) (A) (A) (A) (A) (A) (A) (A)
                 (A) (A) (A) (A) (A) (A) (A) (A) (A) (A) (A) (A)
                 (A) (A) (A) (A) (A) (A) (A) (A) (A) (A) (A) (A)
                 (A) (A) (A) (A) (A) (A) (A) (A) (A) (A) (A) (A)
                 (A) (A) (A) (A) (A) (A) (A) (A) (A) (A) (A) (A)
                 (A) (A) (A) (A) (A) (A) (A) (A) (A) (A) (A) (A)
                 (A) (A) (A) (A) (A) (A) (A) (A) (A) (A) (A) (A)
                 (A) (A) (A) (A) (A) (A) (A) (A) (A) (A) (A) (A)
                 (A) (A) (A) (A) (A) (A) (A) (A) (A) (A) (A) (A)
                 (A) (A) (A) (A) (A) (A) (A) (A) (A) (A) (A) (A)
                 (A) (A) (A) (A) (A) (A) (A) (A) (A) (A) (A) (A)
                 (A) (A) (A) (A) (A) (A) (A) (A) (A) (A) (A) (A)
                 (A) (A) (A) (A) (A) (A) (A) (A) (A) (A) (A) (A)
                 (A) (A) (A) (A) (A) (A) (A) (A) (A) (A) (A) (A)
                 (A) (A) (A) (A) (A) (A) (A) (A) (A) (A) (A) (A)
                 (A) (A) (A) (A) (A) (A) (A) (A) (A) (A) (A) (A)
                 (A) (A) (A) (A) (A) (A) (A) (A) (A) (A) (A) (A)
                 (A) (A) (A) (A) (A) (A) (A) (A) (A) (A) (A) (A)
                 (A) (A) (A) (A) (A) (A) (A) (A) (A) (A) (A) (A)
                 (A) (A) (A) (A) (A) (A) (A) (A) (A) (A) (A) (A)
                 (A) (A) (A) (A) (A) (A) (A) (A) (A) (A) (A) (A)
                 (A) (A) (A) (A) (A) (A) (A) (A) (A) (A) (A) (A)
                 (A) (A) (A) (A) (A) (A) (A) (A) (A) (A) (A) (A)
                 (A) (A) (A) (A) (A) (A) (A) (A) (A) (A) (A) (A)
                 (A) (A) (A) (A) (A) (A) (A) (A) (A) (A) (A) (A)
                 (A) (A) (A) (A) (A) (A) (A) (A) (A) (A) (A) (A)
                 (A) (A) (A) (A) (A) (A) (A) (A) (A) (A) (A) (A)
                 (A) (A) (A) (A) (A) (A) (A) (A) (A) (A) (A) (A)
                 (A) (A) (A) (A) (A) (A) (A) (A) (A) (A) (A) (A)
                 (A) (A) (A) (A) (A) (A) (A) (A) (A) (A) (A) (A)
                 (A) (A) (A)
 The electronic state is 1-A.
 Alpha  occ. eigenvalues -- -453.54916-101.48631 -88.87721 -77.14230 -57.26863
 Alpha  occ. eigenvalues --  -52.04426 -52.04339 -52.04049 -19.17564 -19.14012
 Alpha  occ. eigenvalues --  -19.13179 -19.12960 -19.12955 -19.11622 -19.11207
 Alpha  occ. eigenvalues --  -14.38486 -14.37782 -14.37288 -14.35288 -14.31255
 Alpha  occ. eigenvalues --  -10.31676 -10.31159 -10.30241 -10.29919 -10.28658
 Alpha  occ. eigenvalues --  -10.26283 -10.25498 -10.23779 -10.23766 -10.22888
 Alpha  occ. eigenvalues --  -10.22728 -10.22472 -10.22359 -10.21839 -10.21384
 Alpha  occ. eigenvalues --  -10.21153 -10.20851 -10.20702 -10.20382  -9.41652
 Alpha  occ. eigenvalues --   -7.95151  -7.61906  -7.17805  -7.17106  -7.17067
 Alpha  occ. eigenvalues --   -6.62192  -5.91567  -5.91177  -5.90627  -5.74932
 Alpha  occ. eigenvalues --   -5.74646  -5.73598  -4.78316  -4.78292  -4.78166
 Alpha  occ. eigenvalues --   -4.24972  -2.38809  -2.38790  -2.36458  -2.11145
 Alpha  occ. eigenvalues --   -2.11118  -2.10255  -2.10026  -2.09815  -1.09322
 Alpha  occ. eigenvalues --   -1.06298  -1.05231  -1.04987  -1.03430  -1.00711
 Alpha  occ. eigenvalues --   -0.99920  -0.95624  -0.94189  -0.93821  -0.92152
 Alpha  occ. eigenvalues --   -0.88941  -0.83610  -0.81306  -0.79340  -0.79135
 Alpha  occ. eigenvalues --   -0.78299  -0.76860  -0.75814  -0.74106  -0.73311
 Alpha  occ. eigenvalues --   -0.72413  -0.70822  -0.69426  -0.66198  -0.65514
 Alpha  occ. eigenvalues --   -0.64910  -0.63891  -0.62420  -0.61719  -0.60639
 Alpha  occ. eigenvalues --   -0.60239  -0.58265  -0.57928  -0.57315  -0.55108
 Alpha  occ. eigenvalues --   -0.53212  -0.52453  -0.51759  -0.50376  -0.50293
 Alpha  occ. eigenvalues --   -0.49984  -0.49952  -0.49783  -0.49518  -0.48331
 Alpha  occ. eigenvalues --   -0.48085  -0.47759  -0.47165  -0.46309  -0.46177
 Alpha  occ. eigenvalues --   -0.46010  -0.45625  -0.45509  -0.45085  -0.44872
 Alpha  occ. eigenvalues --   -0.44134  -0.43921  -0.43627  -0.43295  -0.42942
 Alpha  occ. eigenvalues --   -0.42431  -0.42202  -0.41843  -0.41757  -0.41576
 Alpha  occ. eigenvalues --   -0.41521  -0.41025  -0.40898  -0.40742  -0.40531
 Alpha  occ. eigenvalues --   -0.39951  -0.39794  -0.39442  -0.39277  -0.38801
 Alpha  occ. eigenvalues --   -0.38681  -0.38340  -0.38056  -0.37761  -0.37507
 Alpha  occ. eigenvalues --   -0.37263  -0.37011  -0.35494  -0.35095  -0.34911
 Alpha  occ. eigenvalues --   -0.33880  -0.32059  -0.31412  -0.31211  -0.29842
 Alpha  occ. eigenvalues --   -0.29771  -0.29380  -0.28712  -0.28397  -0.28201
 Alpha  occ. eigenvalues --   -0.28123  -0.27202  -0.26493  -0.26209  -0.26094
 Alpha  occ. eigenvalues --   -0.25436  -0.25328  -0.24920  -0.24477  -0.24013
 Alpha  occ. eigenvalues --   -0.20845
 Alpha virt. eigenvalues --   -0.11682  -0.03140  -0.02013  -0.00588   0.00115
 Alpha virt. eigenvalues --    0.00689   0.01102   0.01487   0.01742   0.02537
 Alpha virt. eigenvalues --    0.02652   0.03675   0.04538   0.05244   0.05847
 Alpha virt. eigenvalues --    0.06423   0.07503   0.08083   0.08895   0.09204
 Alpha virt. eigenvalues --    0.09507   0.09598   0.09986   0.10885   0.11577
 Alpha virt. eigenvalues --    0.11824   0.12089   0.12327   0.12687   0.12750
 Alpha virt. eigenvalues --    0.13075   0.13591   0.13998   0.14339   0.14544
 Alpha virt. eigenvalues --    0.14794   0.14999   0.15634   0.16055   0.16165
 Alpha virt. eigenvalues --    0.16548   0.16964   0.17332   0.17630   0.17666
 Alpha virt. eigenvalues --    0.17891   0.18099   0.18388   0.18685   0.19030
 Alpha virt. eigenvalues --    0.19142   0.19307   0.19655   0.20139   0.20697
 Alpha virt. eigenvalues --    0.20969   0.21211   0.21632   0.22018   0.22657
 Alpha virt. eigenvalues --    0.22972   0.23284   0.23697   0.24324   0.25107
 Alpha virt. eigenvalues --    0.25414   0.25852   0.25980   0.26704   0.26822
 Alpha virt. eigenvalues --    0.27615   0.30964   0.31137   0.31724   0.32991
 Alpha virt. eigenvalues --    0.33851   0.34124   0.34618   0.35393   0.35984
 Alpha virt. eigenvalues --    0.36538   0.36865   0.37881   0.38281   0.39334
 Alpha virt. eigenvalues --    0.39628   0.39939   0.40549   0.41902   0.42234
 Alpha virt. eigenvalues --    0.43077   0.43999   0.45496   0.45757   0.46334
 Alpha virt. eigenvalues --    0.46471   0.46900   0.47526   0.47942   0.49342
 Alpha virt. eigenvalues --    0.49734   0.50325   0.51007   0.52200   0.52522
 Alpha virt. eigenvalues --    0.53125   0.53466   0.53879   0.54169   0.54416
 Alpha virt. eigenvalues --    0.54779   0.55441   0.55772   0.56344   0.56676
 Alpha virt. eigenvalues --    0.56771   0.57406   0.57522   0.57608   0.58571
 Alpha virt. eigenvalues --    0.59500   0.59873   0.60154   0.60473   0.60830
 Alpha virt. eigenvalues --    0.61940   0.62459   0.63131   0.63558   0.64198
 Alpha virt. eigenvalues --    0.64330   0.64915   0.65170   0.65878   0.66088
 Alpha virt. eigenvalues --    0.66509   0.66920   0.67136   0.67634   0.67865
 Alpha virt. eigenvalues --    0.68314   0.68601   0.69049   0.69651   0.70097
 Alpha virt. eigenvalues --    0.71377   0.71687   0.72554   0.72658   0.73241
 Alpha virt. eigenvalues --    0.73408   0.73979   0.74529   0.74642   0.75996
 Alpha virt. eigenvalues --    0.76641   0.77033   0.78201   0.79037   0.79232
 Alpha virt. eigenvalues --    0.79465   0.80289   0.80411   0.80780   0.80912
 Alpha virt. eigenvalues --    0.81266   0.81802   0.82271   0.82863   0.83055
 Alpha virt. eigenvalues --    0.83420   0.83909   0.84038   0.84798   0.85087
 Alpha virt. eigenvalues --    0.85187   0.85544   0.85919   0.86339   0.86460
 Alpha virt. eigenvalues --    0.87020   0.87230   0.87341   0.87579   0.88015
 Alpha virt. eigenvalues --    0.88209   0.88417   0.88505   0.89262   0.89564
 Alpha virt. eigenvalues --    0.89925   0.90336   0.90718   0.90984   0.91438
 Alpha virt. eigenvalues --    0.91514   0.91981   0.92221   0.92484   0.92710
 Alpha virt. eigenvalues --    0.92867   0.93399   0.93613   0.94118   0.94215
 Alpha virt. eigenvalues --    0.94791   0.95208   0.95268   0.95798   0.95852
 Alpha virt. eigenvalues --    0.96505   0.97364   0.97669   0.97979   0.98460
 Alpha virt. eigenvalues --    0.99007   0.99348   0.99830   1.00062   1.00455
 Alpha virt. eigenvalues --    1.00785   1.01209   1.02151   1.02337   1.02750
 Alpha virt. eigenvalues --    1.03357   1.03864   1.04222   1.04700   1.05891
 Alpha virt. eigenvalues --    1.06488   1.07462   1.07678   1.08388   1.08740
 Alpha virt. eigenvalues --    1.10057   1.10969   1.11447   1.11967   1.13108
 Alpha virt. eigenvalues --    1.13947   1.14216   1.14458   1.16161   1.17561
 Alpha virt. eigenvalues --    1.18788   1.19734   1.20758   1.22238   1.23248
 Alpha virt. eigenvalues --    1.23381   1.25459   1.26156   1.26564   1.28041
 Alpha virt. eigenvalues --    1.28461   1.28918   1.30783   1.31173   1.31936
 Alpha virt. eigenvalues --    1.34400   1.34779   1.36685   1.37974   1.38915
 Alpha virt. eigenvalues --    1.40407   1.40679   1.41715   1.42656   1.43503
 Alpha virt. eigenvalues --    1.45719   1.46015   1.46427   1.46879   1.48202
 Alpha virt. eigenvalues --    1.49625   1.50489   1.51353   1.51883   1.52560
 Alpha virt. eigenvalues --    1.53475   1.54500   1.55327   1.56475   1.56748
 Alpha virt. eigenvalues --    1.57642   1.58498   1.59303   1.59949   1.60609
 Alpha virt. eigenvalues --    1.62401   1.62881   1.63039   1.65697   1.65941
 Alpha virt. eigenvalues --    1.67668   1.67741   1.68284   1.69069   1.70618
 Alpha virt. eigenvalues --    1.70961   1.71431   1.71761   1.73657   1.74335
 Alpha virt. eigenvalues --    1.76052   1.76872   1.78115   1.78835   1.79194
 Alpha virt. eigenvalues --    1.79903   1.80458   1.81285   1.82090   1.82273
 Alpha virt. eigenvalues --    1.82889   1.83144   1.83638   1.84505   1.85229
 Alpha virt. eigenvalues --    1.85520   1.86638   1.87229   1.87454   1.88148
 Alpha virt. eigenvalues --    1.89330   1.89861   1.90121   1.90381   1.91393
 Alpha virt. eigenvalues --    1.91888   1.92320   1.92855   1.93033   1.93470
 Alpha virt. eigenvalues --    1.93747   1.94259   1.94615   1.94739   1.94807
 Alpha virt. eigenvalues --    1.95056   1.95277   1.95603   1.95852   1.96002
 Alpha virt. eigenvalues --    1.96786   1.97281   1.97717   1.98261   1.99166
 Alpha virt. eigenvalues --    1.99308   1.99442   2.00444   2.00624   2.01437
 Alpha virt. eigenvalues --    2.02225   2.02292   2.03280   2.04537   2.04853
 Alpha virt. eigenvalues --    2.05519   2.05721   2.06500   2.07794   2.08380
 Alpha virt. eigenvalues --    2.09044   2.09174   2.10541   2.11124   2.12573
 Alpha virt. eigenvalues --    2.13039   2.13500   2.13856   2.15470   2.15572
 Alpha virt. eigenvalues --    2.16236   2.17691   2.17889   2.18909   2.21005
 Alpha virt. eigenvalues --    2.22404   2.22710   2.23783   2.24114   2.24326
 Alpha virt. eigenvalues --    2.25813   2.26456   2.26801   2.26980   2.27814
 Alpha virt. eigenvalues --    2.28586   2.29307   2.29592   2.29750   2.30798
 Alpha virt. eigenvalues --    2.31320   2.31373   2.32082   2.32308   2.33059
 Alpha virt. eigenvalues --    2.34255   2.35775   2.37842   2.39014   2.39416
 Alpha virt. eigenvalues --    2.40902   2.42084   2.43209   2.44976   2.45850
 Alpha virt. eigenvalues --    2.48302   2.49330   2.51458   2.51642   2.52520
 Alpha virt. eigenvalues --    2.54260   2.56045   2.56265   2.57273   2.57828
 Alpha virt. eigenvalues --    2.59034   2.59205   2.60605   2.60747   2.61480
 Alpha virt. eigenvalues --    2.63201   2.63743   2.63923   2.66404   2.66624
 Alpha virt. eigenvalues --    2.67568   2.68326   2.69100   2.71988   2.73173
 Alpha virt. eigenvalues --    2.77380   2.83002   2.83958   2.86239   2.89643
 Alpha virt. eigenvalues --    2.90720   2.92255   2.93713   2.94620   2.98276
 Alpha virt. eigenvalues --    2.99202   3.01788   3.01830   3.04665   3.10247
 Alpha virt. eigenvalues --    3.10535   3.13954   3.14444   3.15576   8.01883
 Alpha virt. eigenvalues --   15.53492  15.60822  15.64799  43.13006
          Condensed to atoms (all electrons):
 Mulliken charges:
               1
     1  Au  -0.283042
     2  P    0.679033
     3  C   -0.468621
     4  H    0.195170
     5  H    0.235888
     6  C   -0.462158
     7  H    0.181095
     8  H    0.222356
     9  C   -0.470558
    10  H    0.213562
    11  H    0.198132
    12  C   -0.459723
    13  H    0.161350
    14  H    0.165613
    15  H    0.173974
    16  C   -0.462780
    17  H    0.172332
    18  H    0.165183
    19  H    0.164846
    20  C   -0.475266
    21  H    0.204869
    22  H    0.176659
    23  H    0.162744
    24  N   -0.703299
    25  C   -0.108232
    26  C    0.588007
    27  O   -0.521526
    28  C   -0.001675
    29  O   -0.657530
    30  N   -0.585065
    31  C   -0.242657
    32  C    0.560887
    33  O   -0.486098
    34  N   -0.575820
    35  C   -0.066204
    36  C    0.580779
    37  O   -0.476437
    38  C   -0.437364
    39  S   -0.033997
    40  N   -0.571512
    41  C   -0.081924
    42  C   -0.351559
    43  C    0.543101
    44  O   -0.458710
    45  N   -0.553980
    46  C   -0.253025
    47  C    0.548342
    48  O   -0.414688
    49  O   -0.616283
    50  H    0.136293
    51  H    0.155004
    52  H    0.427548
    53  H    0.140508
    54  H    0.318352
    55  H    0.298965
    56  H    0.194097
    57  H    0.175758
    58  H    0.359620
    59  H    0.192301
    60  H    0.233672
    61  H    0.179475
    62  H    0.360908
    63  H    0.199980
    64  H    0.228065
    65  H    0.198393
    66  H    0.349784
    67  H    0.187940
    68  H    0.210772
    69  H    0.347093
    70  H    0.454820
    71  Se  -0.105798
    72  Cl  -0.257739
 Sum of Mulliken charges =   0.00000
 Mulliken charges with hydrogens summed into heavy atoms:
               1
     1  Au  -0.283042
     2  P    0.679033
     3  C   -0.037562
     6  C   -0.058707
     9  C   -0.058863
    12  C    0.041214
    16  C    0.039581
    20  C    0.069006
    24  N   -0.085983
    25  C    0.032276
    26  C    0.588007
    27  O   -0.521526
    28  C    0.289622
    29  O   -0.229982
    30  N   -0.225445
    31  C    0.127198
    32  C    0.560887
    33  O   -0.486098
    34  N   -0.214912
    35  C    0.113271
    36  C    0.580779
    37  O   -0.476437
    38  C   -0.011391
    39  S   -0.033997
    40  N   -0.221728
    41  C    0.116470
    42  C    0.076486
    43  C    0.543101
    44  O   -0.458710
    45  N   -0.206887
    46  C    0.145686
    47  C    0.548342
    48  O   -0.414688
    49  O   -0.161464
    71  Se  -0.105798
    72  Cl  -0.257739
 Electronic spatial extent (au):  <R**2>=          27309.9375
 Charge=              0.0000 electrons
 Dipole moment (field-independent basis, Debye):
    X=              6.4270    Y=              7.1928    Z=             -4.5311  Tot=             10.6571
 Quadrupole moment (field-independent basis, Debye-Ang):
   XX=           -257.4108   YY=           -267.2611   ZZ=           -274.7342
   XY=             33.1891   XZ=             31.2283   YZ=             -1.5983
 Traceless Quadrupole moment (field-independent basis, Debye-Ang):
   XX=              9.0579   YY=             -0.7924   ZZ=             -8.2655
   XY=             33.1891   XZ=             31.2283   YZ=             -1.5983
 Octapole moment (field-independent basis, Debye-Ang**2):
  XXX=            542.4051  YYY=           -134.5327  ZZZ=            -97.0684  XYY=            135.3312
  XXY=             78.8859  XXZ=           -119.9207  XZZ=            125.5042  YZZ=             33.5286
  YYZ=            -23.1674  XYZ=             69.2406
 Hexadecapole moment (field-independent basis, Debye-Ang**3):
 XXXX=         -23133.7296 YYYY=          -8037.1472 ZZZZ=          -3358.6091 XXXY=            518.5653
 XXXZ=            621.1860 YYYX=            405.5535 YYYZ=             22.2250 ZZZX=             -5.7208
 ZZZY=            101.2345 XXYY=          -5389.0372 XXZZ=          -4522.3345 YYZZ=          -1992.5495
 XXYZ=           -127.9668 YYXZ=             12.8500 ZZXY=           -141.3304
 N-N= 6.264642323987D+03 E-N=-2.501965117648D+04  KE= 5.183904253373D+03
   1 Symmetry operations used in ECPInt.
 ECPInt:  NShTT=   28203 NPrTT=  169893 LenC2=   20882 LenP2D=   65068.
 LDataN:  DoStor=T MaxTD1= 8 Len=  415
 Calling FoFJK, ICntrl=      2127 FMM=T ISym2X=0 I1Cent= 0 IOpClX= 0 NMat=1 NMatS=1 NMatT=0.
 Defaulting to unpruned grid for atomic number  79.
 Defaulting to unpruned grid for atomic number  79.
 Defaulting to unpruned grid for atomic number  79.
 Defaulting to unpruned grid for atomic number  79.
 Defaulting to unpruned grid for atomic number  79.
 Defaulting to unpruned grid for atomic number  79.
 Defaulting to unpruned grid for atomic number  79.
 Defaulting to unpruned grid for atomic number  79.
 Defaulting to unpruned grid for atomic number  79.
 Defaulting to unpruned grid for atomic number  79.
 Defaulting to unpruned grid for atomic number  79.
 Defaulting to unpruned grid for atomic number  79.
 ***** Axes restored to original set *****
 -------------------------------------------------------------------
 Center     Atomic                   Forces (Hartrees/Bohr)
 Number     Number              X              Y              Z
 -------------------------------------------------------------------
      1       79          -0.002188909   -0.006570794   -0.003399827
      2       15           0.001308628    0.003307922    0.001630600
      3        6          -0.000001500   -0.000045778   -0.000550199
      4        1          -0.000137637    0.000246083   -0.000097172
      5        1           0.000125825    0.000142273   -0.000125655
      6        6           0.000014008   -0.001266738   -0.000069349
      7        1           0.000157537    0.000230077   -0.000045410
      8        1          -0.000021523    0.000225685   -0.000042868
      9        6           0.000762259    0.000501377    0.000200025
     10        1          -0.000414397   -0.000036913   -0.000101255
     11        1          -0.000128765    0.000091785    0.000117508
     12        6          -0.000173622   -0.000228263    0.000089435
     13        1          -0.000030067    0.000246960   -0.000226980
     14        1          -0.000037963    0.000033329    0.000170019
     15        1           0.000078626   -0.000099157    0.000001800
     16        6           0.000253379   -0.000156420    0.000290528
     17        1          -0.000129482   -0.000171359   -0.000083463
[...]
 00000283,0.00000123,-0.00000135,-0.00000101,-0.00000445,-0.00000185,-0
 .00000137,-0.00000059,-0.00000049,-0.00000481,-0.00000588,-0.00000928,
 -0.00000748,0.00001264,-0.00000591,-0.00000222,-0.00001051,-0.00000079
 ,0.00000287,0.00000518,0.00036765,-0.00075371,-0.00004732,0.00042082,0
 .00012305,0.00076465,0.00076731,0.00686882,-0.00292911,0.00197365,-0.0
 0771011,-0.00855233,0.00029976,0.00020290,0.00049147,-0.00028672,-0.00
 006159,-0.00031693,-0.00175316,0.00021605,0.00016463,0.00045936,-0.000
 09682,-0.00056802,0.00088553,0.00004681,0.00040293,-0.00039019,-0.0000
 8610,-0.00015648,-0.00058680,0.00007295,-0.00008703,0.00007649,-0.0001
 5178,-0.00003822,0.00020764,-0.00013290,0.00035051,-0.00010366,0.00019
 614,-0.00025267,0.00006668,0.00008475,-0.00000998,-0.00006914,0.000023
 77,-0.00002272,-0.00003783,0.00010309,-0.00028711,-0.00002422,-0.00012
 160,0.00000289,-0.00003420,0.00004108,0.00000056,-0.00048424,0.0001168
 9,-0.00002036,0.00018034,-0.00004187,-0.00002925,-0.00059659,0.0003087
 5,0.00051193,-0.00290237,-0.00196680,-0.00217204,-0.02377799,0.0305386
 2,0.01259062,0.00530351,-0.00292409,-0.00147451,0.05196733,-0.08605544
 ,-0.07014783,-0.00004367,-0.00005949,-0.00007510,0.00003629,0.00005044
 ,0.00002811,0.00006619,0.00010420,0.00010179,0.00009117,-0.00023117,0.
 00007396,-0.00029614,0.00031189,0.00004777,-0.00010569,0.00010873,-0.0
 0006777,-0.00011493,-0.00013333,0.00013548,-0.00005313,-0.00004944,0.0
 0010021,0.00304741,0.00056750,-0.00225842,-0.00000406,-0.00000827,-0.0
 0001677,-0.00002731,-0.00002342,0.00001900,0.00000065,0.00000604,-0.00
 002998,0.00002894,0.00003735,0.00001098,-0.00000414,0.00000685,-0.0000
 0432,-0.00000054,0.00000469,0.00000890,-0.00000522,0.00002179,0.000046
 33,-0.00000138,-0.00000375,0.00001522,0.00032845,-0.00024261,-0.000186
 34,-0.00020730,0.00001060,0.00044459,-0.00021067,0.00009180,0.00009671
 ,-0.03448026,0.06060363,0.07333031,-0.02475677,-0.01912839,-0.01556969
 ,0.00413922,-0.00251577,-0.00027122,0.00021344,0.00011239,-0.00006492,
 -0.00002637,-0.00002016,-0.00002211,-0.00016465,-0.00000471,0.00004214
 ,-0.00077541,-0.00091565,-0.00023334,0.00007756,0.00028659,-0.00038240
 ,-0.00000671,-0.00000727,-0.00012967,-0.00145871,-0.00080870,-0.001337
 55,-0.00002365,0.00009676,-0.00003636,-0.00005615,0.00006493,-0.000013
 38,-0.00004513,0.00008065,0.00017903,0.00004227,0.00002021,0.00001166,
 0.00002761,-0.00001187,-0.00002034,-0.00004354,-0.00001967,-0.00003795
 ,0.00066031,-0.00037785,0.00045354,-0.00015874,-0.00021237,-0.00016131
 ,-0.00001517,0.00003582,-0.00003349,-0.00004667,0.00000734,0.00000537,
 -0.00016987,-0.00005905,0.00006914,0.00000407,-0.00000288,0.00005747,0
 .00004749,0.00001997,-0.00003040,0.00000362,0.00000679,0.00002907,-0.0
 0001435,0.00003172,-0.00000116,0.00001168,-0.00001016,0.00001097,-0.00
 001230,-0.00006350,0.00003893,-0.00002225,0.00012280,-0.00005758,-0.00
 000730,-0.00001494,-0.00001125,0.00001088,0.00003825,0.00000996,-0.000
 00442,0.00002875,-0.00004086,-0.00001629,-0.00002330,0.00002793,-0.000
 02576,-0.00004600,-0.00003879,0.00003980,0.00004477,0.00002292,0.00017
 161,0.00004002,-0.00010509,0.00000558,-0.00043551,0.00007164,0.0002577
 3,-0.00029205,0.00067450,0.00032238,0.00028614,-0.00014225,-0.00018883
 ,0.00087086,-0.00134069,0.00127105,0.00098293,0.00013472,-0.00338093,-
 0.00058625,0.00514200,-0.01061030,-0.00199448,0.02064332,-0.03669391,-
 0.01036612,0.02447580,-0.00443567,0.00060311,-0.00369866,0.00150667,-0
 .00014445,0.00041966,-0.00011204,0.00006994,0.00164257,0.00033748,0.00
 014848,0.00023094,0.00032468,-0.00021344,0.00006158,-0.00016640,0.0001
 1836,-0.00000153,-0.00025697,0.00018447,-0.00010455,-0.00000180,0.0000
 1058,0.00000219,0.00000308,-0.00000239,-0.00000118,-0.00001323,-0.0000
 2438,-0.00000528,-0.00000125,0.00000551,-0.00000454,0.00000920,-0.0000
 1162,-0.00000183,0.00000404,-0.00000884,0.00000340,-0.00000007,0.00001
 246,0.00000100,0.00001277,-0.00000782,0.00001618,0.00003499,-0.0000389
 1,0.00003650,0.00006212,0.00073903,0.00026037,-0.00252540,0.00243112,-
 0.00020730,0.00002500,0.00004124,-0.00006295,-0.00008046,-0.00002429,0
 .00003954,-0.00273966,-0.00181516,0.00648866,0.00357768,0.00127961,-0.
 00197475,0.00000679,-0.00017272,-0.00014231,-0.00075012,0.00005304,-0.
 00012134,-0.00006401,-0.00002439,-0.00000831,0.00007046,0.00002851,0.0
 0001171,-0.00022799,-0.00029891,0.00004985,0.00008898,-0.00014319,0.00
 001802,0.08142449,-0.01819186,-0.04971980,-0.02968354,-0.00173850,0.00
 020101,0.00242606,-0.00029027,-0.00120491,-0.00197303,-0.00010891,-0.0
 0006014,0.00003267,0.00009072,-0.00007767,-0.00002063,-0.00075769,-0.0
 0116193,-0.00020032,0.00017679,0.00034548,-0.00041442,0.00001443,-0.00
 004443,-0.00009052,-0.00123407,-0.00035638,-0.00127410,0.00007305,-0.0
 0010197,-0.00010620,-0.00010067,-0.00002072,0.00004161,-0.00061205,0.0
 0010067,0.00090852,0.00004165,-0.00002026,-0.00002792,0.00005459,0.000
 00381,-0.00005173,-0.00020747,-0.00010101,-0.00029716,0.00077955,-0.00
 034983,0.00054306,-0.00016683,-0.00022138,-0.00018898,-0.00002353,0.00
 006216,-0.00001400,-0.00001907,0.00007542,0.00000063,-0.00019022,0.000
 06593,-0.00001123,0.00005636,-0.00004407,0.00000577,0.00011971,0.00001
 222,-0.00003218,0.00001628,-0.00000998,0.00002077,-0.00002371,0.000032
 16,0.00000590,0.00001810,-0.00000652,0.00000229,0.00009026,-0.00006004
 ,-0.00007147,-0.00005613,0.00003051,0.00003663,0.00000187,-0.00002117,
 -0.00001587,-0.00000497,0.00003894,0.00004011,-0.00007727,0.00005718,0
 .00004461,0.00002043,-0.00000317,-0.00001833,0.00023875,-0.00024561,-0
 .00015942,-0.00005664,0.00019276,0.00013035,-0.00012155,0.00013015,-0.
 00013159,-0.00052709,-0.00003775,-0.00009745,0.00048785,-0.00051122,-0
 .00126152,-0.00043032,0.00047408,0.00038558,0.00084701,-0.00336196,0.0
 0039574,0.00154749,-0.00520519,0.00134657,0.00421360,-0.00053340,-0.00
 290531,0.00087968,0.00020802,-0.00158253,-0.01324300,-0.03013588,0.016
 56749,0.00051363,-0.00033602,-0.00138539,0.00031432,0.00022192,0.00029
 738,-0.00008076,0.00008496,0.00013097,0.00002741,0.00001902,0.00004069
 ,0.00010466,-0.00012057,-0.00005770,-0.00005261,0.00007843,0.00006065,
 -0.00007815,0.00006047,0.00000917,-0.00000194,0.00001167,0.00000193,-0
 .00000250,-0.00000209,0.00000188,0.00001353,-0.00003540,-0.00005200,0.
 00000186,-0.00000375,0.00000398,0.00000854,-0.00001370,-0.00000431,0.0
 0000768,-0.00000842,0.00000258,-0.00001168,0.00000556,0.00000316,0.000
 01382,-0.00000396,0.00002268,0.00002519,-0.00002319,-0.00001168,-0.000
 43607,-0.00060277,-0.00042853,0.00110307,-0.00139167,0.00029314,-0.000
 08329,-0.00001296,0.00001243,0.00014719,-0.00003874,0.00000424,-0.0096
 3451,-0.00368201,0.01892920,0.00084348,-0.00025708,-0.00062434,0.00019
 272,-0.00003858,-0.00013687,0.00069032,0.00040682,-0.00009545,-0.00000
 492,-0.00000807,-0.00001120,0.00002275,-0.00000966,-0.00001906,0.00000
 176,-0.00002796,-0.00001241,0.00003347,-0.00004479,-0.00000277,0.03515
 898,0.09574403,-0.00764622,-0.01825275,-0.03276568,-0.00356088,-0.0047
 8794,0.00657271,-0.00034944,-0.00130262,-0.00232749,0.00006226,-0.0000
 4265,0.00001620,-0.00000910,-0.00004975,-0.00005423,0.00031923,0.00046
 972,0.00023784,0.00003472,0.00006975,0.00014816,-0.00000250,-0.0000419
 3,-0.00018564,-0.00155394,-0.00095419,-0.00182694,0.00002752,-0.000061
 34,-0.00006473,-0.00013617,0.00018231,-0.00003204,-0.00072206,0.000160
 20,0.00088623,0.00005402,-0.00001457,0.00000211,0.00002503,0.00001440,
 -0.00006455,-0.00025069,-0.00010161,-0.00031716,0.00084077,-0.00053501
 ,0.00052708,-0.00017031,-0.00028734,-0.00022192,-0.00001823,0.00002339
 ,-0.00004883,-0.00002785,0.00006810,0.00000854,-0.00005068,0.00008917,
 -0.00014485,0.00007978,-0.00004865,-0.00009004,0.00009214,0.00001094,-
 0.00002315,-0.00003174,0.00000425,0.00002486,-0.00000935,0.00001042,0.
 00000870,0.00000667,-0.00000158,-0.00000293,0.00011800,-0.00001375,-0.
 00011920,-0.00004069,-0.00006814,0.00008819,-0.00000664,-0.00001154,-0
 .00001311,0.00000444,0.00001886,0.00004155,-0.00008201,0.00004664,0.00
 007186,0.00004772,-0.00000810,-0.00004656,0.00031390,-0.00021175,-0.00
 004396,-0.00009645,0.00025197,0.00014069,-0.00049617,0.00016833,0.0001
 9063,0.00079583,0.00009757,0.00016423,0.00045288,-0.00027680,0.0007452
 0,-0.00042264,-0.00022212,-0.00001518,-0.00124707,0.00184904,-0.002228
 05,0.00030859,0.00034098,0.00092248,-0.00000991,0.00238129,-0.00133255
 ,0.00920059,-0.00133644,-0.01194252,0.02006279,0.00703379,-0.07754776,
 0.00155796,-0.00045141,0.00162766,0.00029435,-0.00001671,0.00031570,0.
 00028734,-0.00004769,-0.00098052,-0.00023635,-0.00006615,-0.00020740,-
 0.00016346,0.00007846,-0.00014307,0.00009823,-0.00002227,0.00008144,0.
 00015689,-0.00011015,0.00012217,-0.00000028,0.00000417,0.00000173,-0.0
 0000346,0.00000047,0.00000242,0.00001392,-0.00002640,-0.00005572,0.000
 00289,-0.00000843,0.00000666,0.00000067,-0.00000497,-0.00000364,0.0000
 0443,-0.00000102,0.00000062,-0.00000729,-0.00000094,0.00000382,0.00000
 841,-0.00000599,0.00001874,0.00002820,0.00000581,-0.00004302,-0.000335
 89,0.00074255,0.00019408,-0.00077483,0.00181425,-0.00020374,0.00013889
 ,-0.00001431,-0.00006511,-0.00010380,-0.00002143,-0.00002000,0.0017367
 2,0.00216143,-0.00499406,0.01403288,0.01132484,-0.01924325,-0.00008277
 ,0.00033820,0.00032926,0.00066195,-0.00078629,-0.00004297,0.00006158,0
 .00001888,0.00000850,-0.00001492,0.00000625,-0.00003635,0.00015792,0.0
 0014516,0.00002403,-0.00003699,0.00007337,-0.00001695,-0.03008994,0.00
 169925,0.14698636,-0.04121789,0.02834641,-0.02308136,-0.00302954,0.004
 08657,-0.00061989,-0.00106140,-0.00092566,0.00175353,-0.00002013,-0.00
 083218,-0.00010426,0.00060834,-0.00101147,-0.00079722,0.00081291,0.000
 37114,-0.00027631,0.00010093,-0.00023602,0.00004443,-0.00027935,0.0000
 5977,0.00052675,0.00070562,0.00049221,0.00026474,0.00014711,-0.0003325
 7,-0.00025110,-0.00025765,-0.00026857,0.00009480,0.00068415,-0.0003462
 3,-0.00027272,-0.00018096,-0.00019863,-0.00020684,-0.00001705,0.000158
 62,0.00018052,0.00012444,0.00009914,0.00016100,-0.00008190,-0.00009319
 ,0.00003834,0.00003705,0.00000135,-0.00000447,0.00001174,0.00006992,0.
 00007373,0.00009598,0.00013580,-0.00000764,-0.00023607,-0.00025048,-0.
 00018030,0.00006910,0.00018916,0.00007157,0.00012306,0.00004278,0.0000
 2687,0.00016477,-0.00004433,-0.00005864,-0.00010317,0.00006896,0.00001
 338,0.00007585,-0.00000183,-0.00001244,0.00043745,-0.00010485,-0.00036
 931,-0.00023393,-0.00013462,0.00025345,0.00012219,-0.00005585,-0.00001
 178,-0.00016439,0.00008221,0.00011674,-0.00037504,0.00014071,0.0001880
 9,0.00012910,0.00011091,-0.00010438,0.00117628,-0.00091090,-0.00038362
 ,-0.00045528,0.00066640,0.00040737,-0.00121559,0.00020569,0.00026108,0
 .00026479,-0.00014394,-0.00023025,0.00032063,0.00084237,-0.00008892,-0
 .00039567,-0.00059045,0.00002117,0.00156788,0.00068385,-0.00072651,-0.
 00018126,0.00468081,-0.00116800,-0.00010590,-0.00037658,0.00038293,-0.
 00012197,0.00013913,-0.00052132,-0.00060065,-0.00084350,0.00023249,0.0
 0022914,-0.00003643,-0.00041116,-0.00004254,-0.00004282,0.00031625,-0.
 00008629,-0.00008904,0.00014961,0.00002410,0.00006418,-0.00001087,-0.0
 0000182,-0.00003889,-0.00017141,-0.00002919,0.00002669,0.00012173,0.00
 000210,-0.00008762,0.00011014,-0.00001296,0.00003086,-0.00000439,-0.00
 002614,-0.00000738,0.00001161,0.00013795,-0.00009455,-0.00019354,0.000
 01407,-0.00002409,0.00003240,0.00002450,-0.00003451,-0.00000984,0.0000
 2423,-0.00002372,0.00000205,-0.00005712,-0.00000994,0.00000403,0.00003
 664,0.00000919,0.00004051,0.00004999,0.00004041,-0.00001677,-0.0007467
 8,-0.00067142,-0.00001580,-0.00050012,-0.00037329,0.00005503,-0.000183
 47,0.00000633,0.00010689,0.00055676,-0.00010707,-0.00025893,-0.0003328
 7,0.00003157,-0.00009879,-0.00011814,-0.00011749,-0.00064897,-0.000106
 87,0.00003237,0.00006316,0.00046667,0.00048731,-0.00047440,-0.00001772
 ,-0.00001879,0.00000993,0.00002894,0.00004692,-0.00003295,-0.00002146,
 0.00005314,-0.00004843,0.00000899,0.00010244,-0.00004317,-0.00469550,-
 0.00042428,-0.00329940,0.04793031,0.03224385,-0.04271773,0.02272653,0.
 00071515,-0.00900673,-0.00041192,-0.00066619,-0.00080124,0.00179657,0.
 00015502,-0.00074770,-0.00030085,-0.00000802,-0.00208938,-0.00029455,0
 .00070228,0.00025059,-0.00085322,0.00010840,-0.00038478,0.00044857,0.0
 0049766,-0.00180103,-0.00040713,-0.00027595,-0.00028024,-0.00038727,-0
 .00003976,0.00008314,0.00016580,0.00012304,0.00013085,-0.00004089,0.00
 049028,-0.00006416,-0.00007351,-0.00010269,0.00001020,-0.00011543,0.00
 002157,0.00003381,-0.00007221,0.00003468,-0.00004030,0.00012177,-0.000
 00864,-0.00012122,-0.00000866,0.00000654,-0.00004948,0.00000412,-0.000
 01492,-0.00003780,-0.00003474,-0.00003257,-0.00002952,-0.00001189,-0.0
 0005245,-0.00032061,0.00000065,0.00007406,-0.00012388,0.00001533,-0.00
 002536,-0.00003376,-0.00005752,0.00006801,0.00012074,0.00002484,0.0000
 6878,-0.00003801,-0.00001016,-0.00005047,-0.00000191,0.00001221,-0.000
 32216,0.00005412,0.00028313,0.00016302,0.00014097,-0.00020503,-0.00008
 924,0.00003393,0.00000540,0.00012060,-0.00004524,-0.00008080,0.0002755
 4,-0.00009213,-0.00014937,-0.00009185,-0.00009444,0.00007673,-0.000831
 66,0.00065003,0.00028621,0.00033251,-0.00045481,-0.00028188,0.00093234
 ,-0.00005325,-0.00014209,-0.00000754,-0.00006261,0.00037605,-0.0000745
 6,-0.00064978,0.00031197,0.00020604,0.00044989,-0.00011508,-0.00076571
 ,-0.00072468,0.00033397,0.00179080,0.00081927,0.00019926,-0.00012448,0
 .00044716,-0.00031025,-0.00011048,-0.00040783,-0.00021905,-0.00059326,
 0.00086863,-0.00019510,0.00027917,0.00010585,0.00038845,-0.00027967,0.
 00004910,-0.00035270,-0.00011622,0.00000633,-0.00010484,0.00001373,-0.
 00001346,0.00004962,0.00009523,-0.00004451,0.00014332,-0.00002362,0.00
 001529,-0.00008847,-0.00008415,0.00012770,-0.00011458,0.00000848,-0.00
 001813,0.00000363,0.00001996,0.00000453,-0.00000878,-0.00010280,0.0000
 5904,0.00013617,-0.00001022,0.00001921,-0.00002490,-0.00001445,0.00002
 060,0.00000646,-0.00001593,0.00001348,-0.00000018,0.00004413,0.0000108
 5,-0.00000349,-0.00002539,-0.00001297,-0.00002658,-0.00002659,-0.00004
 462,0.00002145,0.00061304,0.00039130,0.00001192,0.00031140,-0.00010195
 ,-0.00007683,0.00019032,0.00001104,-0.00012430,-0.00050987,0.00008886,
 0.00019928,0.00037359,-0.00011768,-0.00019486,0.00076173,-0.00013573,-
 0.00036940,-0.00008480,0.00010728,0.00003485,-0.00038415,-0.00030369,0
 .00033463,-0.00000236,0.00000577,-0.00001041,-0.00001615,-0.00003960,0
 .00003129,0.00003772,-0.00005017,0.00001726,0.00002273,-0.00012467,0.0
 0003833,-0.00321495,0.00161439,-0.00148944,-0.03270213,0.05553747,-0.0
 2153224,0.01865671,-0.02552558,-0.00093533,0.00242406,-0.00176118,-0.0
 0011637,0.00017001,0.00130148,-0.00020133,-0.00017044,0.00002686,-0.00
 006364,-0.00006588,-0.00036756,-0.00000782,-0.00054617,-0.00161259,0.0
 0035576,-0.00086163,0.00026447,0.00087917,-0.00120946,0.00051027,0.000
 09211,0.00027148,0.00059549,0.00005313,-0.00010474,-0.00026187,-0.0001
 1304,-0.00032868,0.00008303,0.00009233,0.00011974,-0.00034990,0.000043
 33,-0.00003515,0.00007462,0.00011473,0.00004224,0.00020262,0.00004801,
 0.00000978,0.00012061,0.00002224,-0.00012624,-0.00008233,-0.00000534,-
 0.00002124,0.00003005,0.00001758,0.00009134,0.00011817,0.00003373,0.00
 004803,0.00001551,-0.00005532,-0.00036903,0.00034857,-0.00028705,0.000
 17109,-0.00014082,-0.00002611,0.00003115,0.00004903,0.00023016,-0.0001
 8549,-0.00012610,-0.00006425,0.00003372,0.00001528,0.00004926,0.000003
 66,-0.00001704,0.00034979,-0.00005165,-0.00031942,-0.00016727,-0.00017
 480,0.00023861,0.00007620,-0.00003380,-0.00001139,-0.00010578,0.000045
 20,0.00009979,-0.00029725,0.00009443,0.00017497,0.00009285,0.00013051,
 -0.00008659,0.00089590,-0.00079008,-0.00036160,-0.00035710,0.00050772,
 0.00032959,-0.00115326,0.00001512,0.00020688,-0.00008160,0.00020080,-0
 .00044199,0.00002780,0.00064518,-0.00046949,-0.00015696,-0.00046507,0.
 00018277,0.00097405,-0.00007284,0.00105089,-0.00331123,0.00399646,0.00
 186691,0.00002240,-0.00045299,0.00055586,0.00000919,0.00056402,0.00020
 280,-0.00005105,0.00001408,-0.00068570,-0.00067719,-0.00023731,-0.0005
 9472,0.00064074,0.00008279,0.00052297,0.00032610,0.00008402,0.00010101
 ,-0.00005354,-0.00001661,-0.00009807,-0.00016882,0.00007998,-0.0001910
 0,0.00006347,-0.00001998,0.00011292,0.00015844,-0.00017679,0.00015857,
 -0.00000681,0.00001624,-0.00000272,-0.00002110,-0.00000397,0.00000938,
 0.00010595,-0.00006364,-0.00015916,0.00001138,-0.00002232,0.00002768,0
 .00001175,-0.00001953,-0.00000754,0.00001605,-0.00001034,-0.00000008,-
 0.00005410,-0.00001716,0.00000087,0.00002410,0.00001616,0.00002608,0.0
 0001988,0.00005586,-0.00003147,-0.00012920,-0.00010531,0.00015296,-0.0
 0032953,-0.00042378,-0.00005064,-0.00022107,-0.00002338,0.00011962,0.0
 0071562,-0.00011438,-0.00031157,0.00000620,0.00002287,0.00002903,-0.00
 029756,0.00005909,0.00009476,0.00006164,-0.00009239,0.00000519,0.00027
 054,0.00027382,-0.00033168,0.00002099,0.00000168,0.00001868,0.00001833
 ,0.00004508,-0.00003225,-0.00005919,0.00003979,-0.00000134,-0.00004720
 ,0.00016231,-0.00004613,-0.00487602,-0.00097653,-0.00300558,0.02907979
 ,-0.02083743,0.02744027\\-0.00000442,0.00001045,-0.00000371,0.00000718
 ,-0.00000849,-0.00000290,-0.00000075,0.00000677,0.00000010,-0.00000067
 ,0.00000445,0.00000077,0.00000090,0.00000333,-0.00000262,-0.00000221,-
 0.00000322,0.00000400,0.00000029,-0.00000327,0.00000057,0.00000045,-0.
 00000167,-0.00000357,-0.00000567,0.00000221,0.00000036,0.00000034,0.00
 000275,0.00000359,0.00000026,0.00000108,0.00000275,-0.00000246,0.00000
 047,0.00000040,-0.00000106,0.00000249,0.00000184,0.00000015,-0.0000000
 7,-0.00000206,0.00000006,0.00000229,-0.00000030,-0.00000089,0.00000007
 ,0.00000557,-0.00000149,0.00000074,0.00000529,-0.00000076,-0.00000133,
 0.00000440,0.00000118,0.00000100,0.00000499,0.00000317,0.00000075,0.00
 000195,-0.00000066,-0.00000315,-0.00000138,0.00000003,-0.00000633,-0.0
 0000172,-0.00000036,-0.00000372,-0.00000028,-0.00000299,-0.00000123,0.
 00000526,0.00000293,0.00000118,0.00000508,-0.00001081,-0.00000570,0.00
 001764,0.00000513,0.00000392,-0.00000645,0.00000071,-0.00000393,0.0000
 0371,-0.00000115,-0.00000297,0.00000428,-0.00000045,-0.00000272,-0.000
 00584,0.00000112,0.00000165,0.00000389,-0.00000710,0.00001036,0.000001
 87,-0.00000032,-0.00000418,0.00000487,0.00000180,0.00000088,-0.0000000
 7,0.00000208,0.00000290,-0.00000395,-0.00000989,0.00000223,0.00000694,
 0.00000636,0.00000060,-0.00000430,0.00000466,0.00000713,-0.00000121,-0
 .00000151,0.00000381,0.00000271,0.00000198,-0.00000141,-0.00000434,-0.
 00000064,0.00000906,-0.00000624,0.00000063,-0.00000317,-0.00000527,0.0
 0000166,-0.00000423,-0.00000629,0.00000388,-0.00000305,-0.00000588,-0.
 00000323,-0.00000253,-0.00000193,0.00000197,0.00000223,-0.00000654,0.0
 0000402,-0.00001152,0.00000947,0.00000308,-0.00000522,-0.00000759,-0.0
 0001261,0.00001161,-0.00000221,-0.00000179,-0.00000283,0.00000733,-0.0
 0000044,-0.00000470,0.00000560,-0.00000286,-0.00000336,0.00000608,-0.0
 0000198,-0.00000004,0.00000622,-0.00000098,-0.00000290,0.00000435,-0.0
 0000103,-0.00000047,0.00000518,-0.00000145,0.00000217,0.00000290,-0.00
 000116,0.00000463,0.00000065,0.00000175,0.00000104,-0.00000038,-0.0000
 0173,0.00000536,0.00000125,-0.00000170,0.00000601,-0.00000261,0.000000
 91,0.00000622,0.00000077,-0.00000075,0.00000244,0.00000211,0.00000451,
 0.00000028,-0.00000945,0.00000165,0.00000101,-0.00000498,0.00000339,-0
 .00000092,-0.00000657,-0.00000029,0.00000034,-0.00000241,0.00000129,-0
 .00000362,-0.00000701,0.00000041,-0.00000204,-0.00000466,0.00000305,-0
 .00000411,-0.00000381,0.00001317,-0.00001746,-0.00000812,0.00000290,-0
 .00000021,-0.00000342,-0.00000078,-0.00000017,-0.00000468\\\@


 THERE ARE PEOPLE SO ADDICTED TO EXAGERATING THEY
 CAN'T TELL THE TRUTH WITHOUT LYING. -- FORTUNE COOKIE
 Job cpu time:       0 days 12 hours 16 minutes 17.7 seconds.
 File lengths (MBytes):  RWF=   3493 Int=      0 D2E=      0 Chk=     32 Scr=      1
 Normal termination of Gaussian 09 at Tue Dec 27 20:44:58 2022.
