 Entering Gaussian System, Link 0=g09
 Input=AF41-helio.com
 Output=AF41-helio.log
 Initial command:
 /home/scr/programs/g09/l1.exe "/home/scr/guest2/Gau-31661.inp" -scrdir="/home/scr/guest2/"
 Entering Link 1 = /home/scr/programs/g09/l1.exe PID=     31662.
  
 Copyright (c) 1988,1990,1992,1993,1995,1998,2003,2009,2013,
            Gaussian, Inc.  All Rights Reserved.
  
 This is part of the Gaussian(R) 09 program.  It is based on
 the Gaussian(R) 03 system (copyright 2003, Gaussian, Inc.),
 the Gaussian(R) 98 system (copyright 1998, Gaussian, Inc.),
 the Gaussian(R) 94 system (copyright 1995, Gaussian, Inc.),
 the Gaussian 92(TM) system (copyright 1992, Gaussian, Inc.),
 the Gaussian 90(TM) system (copyright 1990, Gaussian, Inc.),
 the Gaussian 88(TM) system (copyright 1988, Gaussian, Inc.),
 the Gaussian 86(TM) system (copyright 1986, Carnegie Mellon
 University), and the Gaussian 82(TM) system (copyright 1983,
 Carnegie Mellon University). Gaussian is a federally registered
 trademark of Gaussian, Inc.
  
 This software contains proprietary and confidential information,
 including trade secrets, belonging to Gaussian, Inc.
  
 This software is provided under written license and may be
 used, copied, transmitted, or stored only in accord with that
 written license.
  
 The following legend is applicable only to US Government
 contracts under FAR:
  
                    RESTRICTED RIGHTS LEGEND
  
 Use, reproduction and disclosure by the US Government is
 subject to restrictions as set forth in subparagraphs (a)
 and (c) of the Commercial Computer Software - Restricted
 Rights clause in FAR 52.227-19.
  
 Gaussian, Inc.
 340 Quinnipiac St., Bldg. 40, Wallingford CT 06492
  
  
 ---------------------------------------------------------------
 Warning -- This program may not be used in any manner that
 competes with the business of Gaussian, Inc. or will provide
 assistance to any competitor of Gaussian, Inc.  The licensee
 of this program is prohibited from giving any competitor of
 Gaussian, Inc. access to this program.  By using this program,
 the user acknowledges that Gaussian, Inc. is engaged in the
 business of creating and licensing software in the field of
 computational chemistry and represents and warrants to the
 licensee that it is not a competitor of Gaussian, Inc. and that
 it will not use this program in any manner prohibited above.
 ---------------------------------------------------------------
  

 Cite this work as:
 Gaussian 09, Revision D.01,
 M. J. Frisch, G. W. Trucks, H. B. Schlegel, G. E. Scuseria, 
 M. A. Robb, J. R. Cheeseman, G. Scalmani, V. Barone, B. Mennucci, 
 G. A. Petersson, H. Nakatsuji, M. Caricato, X. Li, H. P. Hratchian, 
 A. F. Izmaylov, J. Bloino, G. Zheng, J. L. Sonnenberg, M. Hada, 
 M. Ehara, K. Toyota, R. Fukuda, J. Hasegawa, M. Ishida, T. Nakajima, 
 Y. Honda, O. Kitao, H. Nakai, T. Vreven, J. A. Montgomery, Jr., 
 J. E. Peralta, F. Ogliaro, M. Bearpark, J. J. Heyd, E. Brothers, 
 K. N. Kudin, V. N. Staroverov, T. Keith, R. Kobayashi, J. Normand, 
 K. Raghavachari, A. Rendell, J. C. Burant, S. S. Iyengar, J. Tomasi, 
 M. Cossi, N. Rega, J. M. Millam, M. Klene, J. E. Knox, J. B. Cross, 
 V. Bakken, C. Adamo, J. Jaramillo, R. Gomperts, R. E. Stratmann, 
 O. Yazyev, A. J. Austin, R. Cammi, C. Pomelli, J. W. Ochterski, 
 R. L. Martin, K. Morokuma, V. G. Zakrzewski, G. A. Voth, 
 P. Salvador, J. J. Dannenberg, S. Dapprich, A. D. Daniels, 
 O. Farkas, J. B. Foresman, J. V. Ortiz, J. Cioslowski, 
 and D. J. Fox, Gaussian, Inc., Wallingford CT, 2013.
 
 ******************************************
 Gaussian 09:  EM64L-G09RevD.01 24-Apr-2013
                27-Dec-2022 
 ******************************************
 %mem=10000MB
 %nprocshared=8
 Will use up to    8 processors via shared memory.
 ----------------------------------------
 # opt freq=noraman b3lyp/gen pseudo=read
 ----------------------------------------
 1/14=-1,18=20,19=15,26=3,38=1/1,3;
 2/9=110,12=2,17=6,18=5,40=1/2;
 3/5=7,11=2,16=1,17=8,25=1,30=1,71=1,74=-5/1,2,3;
 4//1;
 5/5=2,38=5/2;
 6/7=2,8=2,9=2,10=2,28=1/1;
 7//1,2,3,16;
 1/14=-1,18=20,19=15,26=3/3(2);
 2/9=110/2;
 99//99;
 2/9=110/2;
 3/5=7,6=1,11=2,16=1,17=8,25=1,30=1,71=1,74=-5,82=7/1,2,3;
 4/5=5,16=3,69=1/1;
 5/5=2,38=5/2;
 7//1,2,3,16;
 1/14=-1,18=20,19=15,26=3/3(-5);
 2/9=110/2;
 6/7=2,8=2,9=2,10=2,19=2,28=1/1;
 99/9=1/99;
 -------------------
 Title Card Required
 -------------------
 Symbolic Z-matrix:
 Charge =  0 Multiplicity = 1
 15                   0     1.3328    0.12161  -0.0369 
 6                    0     2.06563  -0.52271   1.53602 
 6                    0     1.72564  -1.98909   1.83197 
 1                    0     1.69035   0.12174   2.33843 
 1                    0     3.15078  -0.37435   1.4869 
 1                    0     2.16624  -2.28513   2.78968 
 1                    0     0.64262  -2.14053   1.89632 
 1                    0     2.11829  -2.66287   1.06333 
 6                    0     1.96066   1.85491  -0.20365 
 6                    0     1.35465   2.84288   0.8019 
 1                    0     1.73243   2.16689  -1.22943 
 1                    0     3.05231   1.828    -0.10721 
 1                    0     1.7555    3.84591   0.6218 
 1                    0     0.26469   2.89057   0.7046 
 1                    0     1.59278   2.57135   1.83547 
 6                    0     2.10181  -0.83683  -1.42478 
 6                    0     3.63478  -0.82672  -1.49687 
 1                    0     1.66704  -0.43023  -2.34532 
 1                    0     1.72448  -1.86154  -1.33468 
 1                    0     3.96251  -1.438    -2.34458 
 1                    0     4.0301    0.18287  -1.645 
 1                    0     4.09107  -1.24405  -0.59349 
 79                   0    -0.94382  -0.03204  -0.08234 
 17                   0    -3.30179  -0.21166  -0.13801 
 

 GradGradGradGradGradGradGradGradGradGradGradGradGradGradGradGradGradGrad
 Berny optimization.
 Initialization pass.
                           ----------------------------
                           !    Initial Parameters    !
                           ! (Angstroms and Degrees)  !
 --------------------------                            --------------------------
 ! Name  Definition              Value          Derivative Info.                !
 --------------------------------------------------------------------------------
 ! R1    R(1,2)                  1.851          estimate D2E/DX2                !
 ! R2    R(1,9)                  1.851          estimate D2E/DX2                !
 ! R3    R(1,16)                 1.8537         estimate D2E/DX2                !
 ! R4    R(1,23)                 2.2823         estimate D2E/DX2                !
 ! R5    R(2,3)                  1.5341         estimate D2E/DX2                !
 ! R6    R(2,4)                  1.0954         estimate D2E/DX2                !
 ! R7    R(2,5)                  1.0963         estimate D2E/DX2                !
 ! R8    R(3,6)                  1.095          estimate D2E/DX2                !
 ! R9    R(3,7)                  1.0955         estimate D2E/DX2                !
 ! R10   R(3,8)                  1.095          estimate D2E/DX2                !
 ! R11   R(9,10)                 1.5344         estimate D2E/DX2                !
 ! R12   R(9,11)                 1.0962         estimate D2E/DX2                !
 ! R13   R(9,12)                 1.0962         estimate D2E/DX2                !
 ! R14   R(10,13)                1.0951         estimate D2E/DX2                !
 ! R15   R(10,14)                1.0953         estimate D2E/DX2                !
 ! R16   R(10,15)                1.0949         estimate D2E/DX2                !
 ! R17   R(16,17)                1.5347         estimate D2E/DX2                !
 ! R18   R(16,18)                1.0962         estimate D2E/DX2                !
 ! R19   R(16,19)                1.0957         estimate D2E/DX2                !
 ! R20   R(17,20)                1.0953         estimate D2E/DX2                !
 ! R21   R(17,21)                1.0943         estimate D2E/DX2                !
 ! R22   R(17,22)                1.0947         estimate D2E/DX2                !
 ! R23   R(23,24)                2.3655         estimate D2E/DX2                !
 ! A1    A(2,1,9)              105.558          estimate D2E/DX2                !
 ! A2    A(2,1,16)             106.9782         estimate D2E/DX2                !
 ! A3    A(2,1,23)             112.8559         estimate D2E/DX2                !
 ! A4    A(9,1,16)             106.0211         estimate D2E/DX2                !
 ! A5    A(9,1,23)             113.5532         estimate D2E/DX2                !
 ! A6    A(16,1,23)            111.3528         estimate D2E/DX2                !
 ! A7    A(1,2,3)              114.1364         estimate D2E/DX2                !
 ! A8    A(1,2,4)              106.3817         estimate D2E/DX2                !
 ! A9    A(1,2,5)              107.8596         estimate D2E/DX2                !
 ! A10   A(3,2,4)              110.1878         estimate D2E/DX2                !
 ! A11   A(3,2,5)              110.9377         estimate D2E/DX2                !
 ! A12   A(4,2,5)              106.9952         estimate D2E/DX2                !
 ! A13   A(2,3,6)              109.7539         estimate D2E/DX2                !
 ! A14   A(2,3,7)              111.2589         estimate D2E/DX2                !
 ! A15   A(2,3,8)              111.9184         estimate D2E/DX2                !
 ! A16   A(6,3,7)              108.0026         estimate D2E/DX2                !
 ! A17   A(6,3,8)              107.6571         estimate D2E/DX2                !
 ! A18   A(7,3,8)              108.1011         estimate D2E/DX2                !
 ! A19   A(1,9,10)             114.1995         estimate D2E/DX2                !
 ! A20   A(1,9,11)             106.2709         estimate D2E/DX2                !
 ! A21   A(1,9,12)             107.8702         estimate D2E/DX2                !
 ! A22   A(10,9,11)            110.3505         estimate D2E/DX2                !
 ! A23   A(10,9,12)            110.5756         estimate D2E/DX2                !
 ! A24   A(11,9,12)            107.256          estimate D2E/DX2                !
 ! A25   A(9,10,13)            109.7186         estimate D2E/DX2                !
 ! A26   A(9,10,14)            111.2737         estimate D2E/DX2                !
 ! A27   A(9,10,15)            111.9051         estimate D2E/DX2                !
 ! A28   A(13,10,14)           108.0447         estimate D2E/DX2                !
 ! A29   A(13,10,15)           107.626          estimate D2E/DX2                !
 ! A30   A(14,10,15)           108.1253         estimate D2E/DX2                !
 ! A31   A(1,16,17)            116.4968         estimate D2E/DX2                !
 ! A32   A(1,16,18)            105.8077         estimate D2E/DX2                !
 ! A33   A(1,16,19)            106.2078         estimate D2E/DX2                !
 ! A34   A(17,16,18)           110.7488         estimate D2E/DX2                !
 ! A35   A(17,16,19)           110.7325         estimate D2E/DX2                !
 ! A36   A(18,16,19)           106.2211         estimate D2E/DX2                !
 ! A37   A(16,17,20)           109.3632         estimate D2E/DX2                !
 ! A38   A(16,17,21)           111.9177         estimate D2E/DX2                !
 ! A39   A(16,17,22)           112.0283         estimate D2E/DX2                !
 ! A40   A(20,17,21)           107.5797         estimate D2E/DX2                !
 ! A41   A(20,17,22)           107.5299         estimate D2E/DX2                !
 ! A42   A(21,17,22)           108.2303         estimate D2E/DX2                !
 ! A43   L(1,23,24,14,-1)      180.5318         estimate D2E/DX2                !
 ! A44   L(1,23,24,14,-2)      179.9189         estimate D2E/DX2                !
 ! D1    D(9,1,2,3)           -177.0067         estimate D2E/DX2                !
 ! D2    D(9,1,2,4)             61.2657         estimate D2E/DX2                !
 ! D3    D(9,1,2,5)            -53.2414         estimate D2E/DX2                !
 ! D4    D(16,1,2,3)           -64.391          estimate D2E/DX2                !
 ! D5    D(16,1,2,4)           173.8813         estimate D2E/DX2                !
 ! D6    D(16,1,2,5)            59.3743         estimate D2E/DX2                !
 ! D7    D(23,1,2,3)            58.4175         estimate D2E/DX2                !
 ! D8    D(23,1,2,4)           -63.3101         estimate D2E/DX2                !
 ! D9    D(23,1,2,5)          -177.8172         estimate D2E/DX2                !
 ! D10   D(2,1,9,10)           -70.9821         estimate D2E/DX2                !
 ! D11   D(2,1,9,11)           167.1244         estimate D2E/DX2                !
 ! D12   D(2,1,9,12)            52.3664         estimate D2E/DX2                !
 ! D13   D(16,1,9,10)          175.7327         estimate D2E/DX2                !
 ! D14   D(16,1,9,11)           53.8392         estimate D2E/DX2                !
 ! D15   D(16,1,9,12)          -60.9188         estimate D2E/DX2                !
 ! D16   D(23,1,9,10)           53.1564         estimate D2E/DX2                !
 ! D17   D(23,1,9,11)          -68.7371         estimate D2E/DX2                !
 ! D18   D(23,1,9,12)          176.5049         estimate D2E/DX2                !
 ! D19   D(2,1,16,17)          -55.6042         estimate D2E/DX2                !
 ! D20   D(2,1,16,18)         -179.1462         estimate D2E/DX2                !
 ! D21   D(2,1,16,19)           68.2328         estimate D2E/DX2                !
 ! D22   D(9,1,16,17)           56.6946         estimate D2E/DX2                !
 ! D23   D(9,1,16,18)          -66.8473         estimate D2E/DX2                !
 ! D24   D(9,1,16,19)         -179.4684         estimate D2E/DX2                !
 ! D25   D(23,1,16,17)        -179.3431         estimate D2E/DX2                !
 ! D26   D(23,1,16,18)          57.115          estimate D2E/DX2                !
 ! D27   D(23,1,16,19)         -55.5061         estimate D2E/DX2                !
 ! D28   D(1,2,3,6)           -178.1929         estimate D2E/DX2                !
 ! D29   D(1,2,3,7)            -58.7157         estimate D2E/DX2                !
 ! D30   D(1,2,3,8)             62.342          estimate D2E/DX2                !
 ! D31   D(4,2,3,6)            -58.5867         estimate D2E/DX2                !
 ! D32   D(4,2,3,7)             60.8905         estimate D2E/DX2                !
 ! D33   D(4,2,3,8)           -178.0517         estimate D2E/DX2                !
 ! D34   D(5,2,3,6)             59.7157         estimate D2E/DX2                !
 ! D35   D(5,2,3,7)            179.1929         estimate D2E/DX2                !
 ! D36   D(5,2,3,8)            -59.7494         estimate D2E/DX2                !
 ! D37   D(1,9,10,13)         -178.5392         estimate D2E/DX2                !
 ! D38   D(1,9,10,14)          -59.0231         estimate D2E/DX2                !
 ! D39   D(1,9,10,15)           62.0668         estimate D2E/DX2                !
 ! D40   D(11,9,10,13)         -58.9147         estimate D2E/DX2                !
 ! D41   D(11,9,10,14)          60.6014         estimate D2E/DX2                !
 ! D42   D(11,9,10,15)        -178.3088         estimate D2E/DX2                !
 ! D43   D(12,9,10,13)          59.587          estimate D2E/DX2                !
 ! D44   D(12,9,10,14)         179.103          estimate D2E/DX2                !
 ! D45   D(12,9,10,15)         -59.8071         estimate D2E/DX2                !
 ! D46   D(1,16,17,20)         179.0897         estimate D2E/DX2                !
 ! D47   D(1,16,17,21)         -61.8005         estimate D2E/DX2                !
 ! D48   D(1,16,17,22)          59.9727         estimate D2E/DX2                !
 ! D49   D(18,16,17,20)        -59.9563         estimate D2E/DX2                !
 ! D50   D(18,16,17,21)         59.1534         estimate D2E/DX2                !
 ! D51   D(18,16,17,22)       -179.0733         estimate D2E/DX2                !
 ! D52   D(19,16,17,20)         57.6116         estimate D2E/DX2                !
 ! D53   D(19,16,17,21)        176.7214         estimate D2E/DX2                !
 ! D54   D(19,16,17,22)        -61.5054         estimate D2E/DX2                !
 --------------------------------------------------------------------------------
 Trust Radius=3.00D-01 FncErr=1.00D-07 GrdErr=1.00D-06
 Number of steps in this run=    131 maximum allowed number of steps=    144.
 GradGradGradGradGradGradGradGradGradGradGradGradGradGradGradGradGradGrad

                          Input orientation:                          
 ---------------------------------------------------------------------
 Center     Atomic      Atomic             Coordinates (Angstroms)
 Number     Number       Type             X           Y           Z
 ---------------------------------------------------------------------
      1         15           0        1.332804    0.121609   -0.036896
      2          6           0        2.065632   -0.522706    1.536024
      3          6           0        1.725641   -1.989090    1.831970
      4          1           0        1.690353    0.121737    2.338426
      5          1           0        3.150779   -0.374345    1.486904
      6          1           0        2.166239   -2.285131    2.789681
      7          1           0        0.642617   -2.140530    1.896321
      8          1           0        2.118291   -2.662867    1.063328
      9          6           0        1.960656    1.854910   -0.203653
     10          6           0        1.354648    2.842875    0.801902
     11          1           0        1.732426    2.166886   -1.229429
     12          1           0        3.052312    1.828002   -0.107212
     13          1           0        1.755501    3.845906    0.621801
     14          1           0        0.264685    2.890572    0.704595
     15          1           0        1.592776    2.571348    1.835473
     16          6           0        2.101810   -0.836827   -1.424778
     17          6           0        3.634784   -0.826724   -1.496865
     18          1           0        1.667036   -0.430226   -2.345324
     19          1           0        1.724482   -1.861543   -1.334684
     20          1           0        3.962510   -1.437998   -2.344578
     21          1           0        4.030100    0.182870   -1.644995
     22          1           0        4.091073   -1.244051   -0.593492
     23         79           0       -0.943822   -0.032041   -0.082339
     24         17           0       -3.301786   -0.211658   -0.138011
 ---------------------------------------------------------------------
                    Distance matrix (angstroms):
                    1          2          3          4          5
     1  P    0.000000
     2  C    1.851015   0.000000
     3  C    2.846407   1.534099   0.000000
     4  H    2.402082   1.095441   2.171021   0.000000
     5  H    2.423421   1.096343   2.181167   1.761826   0.000000
     6  H    3.804806   2.165160   1.094978   2.494617   2.513494
     7  H    3.054662   2.184523   1.095452   2.532007   3.094820
     8  H    3.095285   2.192374   1.094970   3.092414   2.546131
     9  C    1.851037   2.947975   4.356068   3.088546   3.040387
    10  C    2.847692   3.517324   4.954449   3.142960   3.747775
    11  H    2.401040   3.872036   5.161816   4.112663   3.980960
    12  H    2.423516   3.033083   4.482262   3.278325   2.720521
    13  H    3.805646   4.474009   5.959243   4.101278   4.528324
    14  H    3.059059   3.947803   5.216940   3.516871   4.427328
    15  H    3.094281   3.144270   4.562374   2.502614   3.350520
    16  C    1.853695   2.977638   3.474999   3.905105   3.129236
    17  C    2.886166   3.428277   4.009621   4.403390   3.056433
    18  H    2.396888   3.902857   4.459067   4.716219   4.109816
    19  H    2.402198   3.185880   3.169222   4.174482   3.493915
    20  H    3.830551   4.415312   4.769784   5.433783   4.058389
    21  H    3.140882   3.804715   4.702896   4.620151   3.300377
    22  H    3.127759   3.026151   3.468893   4.028024   2.443070
    23  Au   2.282258   3.452052   3.823696   3.580870   4.398347
    24  Cl   4.647657   5.631014   5.684638   5.582593   6.656006
                    6          7          8          9         10
     6  H    0.000000
     7  H    1.772125   0.000000
     8  H    1.767846   1.773225   0.000000
     9  C    5.112949   4.702197   4.694720   0.000000
    10  C    5.559352   5.151608   5.564592   1.534425   0.000000
    11  H    6.013476   5.432479   5.360237   1.096191   2.173933
    12  H    5.108324   5.056681   4.733969   1.096238   2.176814
    13  H    6.515982   6.220959   6.533811   2.165070   1.095076
    14  H    5.895031   5.184113   5.865597   2.184909   1.095337
    15  H    4.982445   4.807109   5.316896   2.192408   1.094852
    16  C    4.456837   3.854683   3.086319   2.959142   4.365382
    17  C    4.760047   4.710930   3.496535   3.415591   4.893803
    18  H    5.482532   4.686803   4.099662   3.145602   4.551462
    19  H    4.169528   3.418722   2.558841   3.891919   5.180089
    20  H    5.504983   5.431433   4.063899   4.408426   5.918374
    21  H    5.406603   5.423481   4.369010   3.025852   4.496774
    22  H    4.029230   4.346803   2.941081   3.780768   5.112544
    23  Au   4.795560   3.298122   4.196467   3.465731   3.785497
    24  Cl   6.539875   4.839150   6.068680   5.654052   5.647653
                   11         12         13         14         15
    11  H    0.000000
    12  H    1.765308   0.000000
    13  H    2.499339   2.507013   0.000000
    14  H    2.533463   3.091755   1.772583   0.000000
    15  H    3.094627   2.541030   1.767478   1.773306   0.000000
    16  C    3.032639   3.121017   5.122148   4.669343   4.743839
    17  C    3.556992   3.052537   5.463874   5.479259   5.178916
    18  H    2.827453   3.468102   5.205474   4.721895   5.147235
    19  H    4.029812   4.108840   6.033554   5.373292   5.451400
    20  H    4.383152   4.062145   6.449026   6.458164   6.258060
    21  H    3.064037   2.455057   4.871345   5.199094   4.874324
    22  H    4.195488   3.279177   5.730576   5.781123   5.167072
    23  Au   3.648753   4.407887   4.777094   3.259052   4.109740
    24  Cl   5.673795   6.673509   6.528192   4.801409   5.966280
                   16         17         18         19         20
    16  C    0.000000
    17  C    1.534701   0.000000
    18  H    1.096247   2.179249   0.000000
    19  H    1.095690   2.178625   1.753101   0.000000
    20  H    2.160936   1.095298   2.506952   2.491595   0.000000
    21  H    2.192391   1.094302   2.539767   3.097062   1.766691
    22  H    2.194091   1.094735   3.099545   2.555663   1.766478
    23  Au   3.424281   4.857575   3.477964   3.469192   5.582700
    24  Cl   5.589763   7.095125   5.441433   5.423792   7.690438
                   21         22         23         24
    21  H    0.000000
    22  H    1.773550   0.000000
    23  Au   5.218044   5.203884   0.000000
    24  Cl   7.495546   7.478480   2.365450   0.000000
 Stoichiometry    C6H15AuClP
 Framework group  C1[X(C6H15AuClP)]
 Deg. of freedom    66
 Full point group                 C1      NOp   1
 Largest Abelian subgroup         C1      NOp   1
 Largest concise Abelian subgroup C1      NOp   1
                         Standard orientation:                         
 ---------------------------------------------------------------------
 Center     Atomic      Atomic             Coordinates (Angstroms)
 Number     Number       Type             X           Y           Z
 ---------------------------------------------------------------------
      1         15           0        1.332804    0.121609   -0.036896
      2          6           0        2.065632   -0.522706    1.536024
      3          6           0        1.725641   -1.989090    1.831970
      4          1           0        1.690353    0.121737    2.338426
      5          1           0        3.150779   -0.374345    1.486904
      6          1           0        2.166239   -2.285131    2.789681
      7          1           0        0.642617   -2.140530    1.896321
      8          1           0        2.118291   -2.662867    1.063328
      9          6           0        1.960656    1.854910   -0.203653
     10          6           0        1.354648    2.842875    0.801902
     11          1           0        1.732426    2.166886   -1.229429
     12          1           0        3.052312    1.828002   -0.107212
     13          1           0        1.755502    3.845906    0.621801
     14          1           0        0.264685    2.890572    0.704595
     15          1           0        1.592776    2.571348    1.835473
     16          6           0        2.101810   -0.836827   -1.424778
     17          6           0        3.634784   -0.826724   -1.496865
     18          1           0        1.667036   -0.430226   -2.345324
     19          1           0        1.724482   -1.861543   -1.334684
     20          1           0        3.962510   -1.437998   -2.344578
     21          1           0        4.030100    0.182870   -1.644995
     22          1           0        4.091073   -1.244051   -0.593492
     23         79           0       -0.943822   -0.032041   -0.082339
     24         17           0       -3.301786   -0.211658   -0.138011
 ---------------------------------------------------------------------
 Rotational constants (GHZ):      1.1422294      0.4104658      0.3801019
 General basis read from cards:  (5D, 7F)
 ======================================================================================================
                                       Pseudopotential Parameters
 ======================================================================================================
  Center     Atomic      Valence      Angular      Power
  Number     Number     Electrons     Momentum     of R      Exponent        Coefficient   SO-Coeffient
 ======================================================================================================
    1         15
                                   No pseudopotential on this center.
    2          6
                                   No pseudopotential on this center.
    3          6
                                   No pseudopotential on this center.
    4          1
                                   No pseudopotential on this center.
    5          1
                                   No pseudopotential on this center.
    6          1
                                   No pseudopotential on this center.
    7          1
                                   No pseudopotential on this center.
    8          1
                                   No pseudopotential on this center.
    9          6
                                   No pseudopotential on this center.
   10          6
                                   No pseudopotential on this center.
   11          1
                                   No pseudopotential on this center.
   12          1
                                   No pseudopotential on this center.
   13          1
                                   No pseudopotential on this center.
   14          1
                                   No pseudopotential on this center.
   15          1
                                   No pseudopotential on this center.
   16          6
                                   No pseudopotential on this center.
   17          6
                                   No pseudopotential on this center.
   18          1
                                   No pseudopotential on this center.
   19          1
                                   No pseudopotential on this center.
   20          1
                                   No pseudopotential on this center.
   21          1
                                   No pseudopotential on this center.
   22          1
                                   No pseudopotential on this center.
   23         79           19
                                      G and up 
                                                     1      622.6287956      -60.00000000    0.00000000
                                                     2      136.2843607     -555.52923120    0.00000000
                                                     2       33.1549781     -168.00197850    0.00000000
                                                     2        9.9894895      -63.03998750    0.00000000
                                                     2        3.0481312       -4.25166810    0.00000000
                                      S - G
                                                     0      194.7374304        3.00000000    0.00000000
                                                     1      351.5327447       38.60208800    0.00000000
                                                     2      122.3270402      864.83707270    0.00000000
                                                     2       32.0914617      374.99355200    0.00000000
                                                     2        5.2451812      289.79101000    0.00000000
                                                     2        4.4916223     -152.45327730    0.00000000
                                      P - G
                                                     0      420.6158801        2.00000000    0.00000000
                                                     1      109.4417815       73.88856250    0.00000000
                                                     2       34.1714280      326.67298720    0.00000000
                                                     2        5.9879750      126.58145910    0.00000000
                                      D - G
                                                     0      219.2666158        3.00000000    0.00000000
                                                     1      122.7297786       55.67931490    0.00000000
                                                     2       63.1063369      449.19873350    0.00000000
                                                     2       18.3684520      215.02690910    0.00000000
                                                     2        4.4972844       64.08409950    0.00000000
                                      F - G
                                                     0      108.5506037        4.00000000    0.00000000
                                                     1       56.4795527       51.80653350    0.00000000
                                                     2       29.2069159      231.21831130    0.00000000
                                                     2        9.5440543      119.00473860    0.00000000
                                                     2        2.8965118       15.34241880    0.00000000
   24         17
                                   No pseudopotential on this center.
 ======================================================================================================
 There are   206 symmetry adapted cartesian basis functions of A   symmetry.
 There are   192 symmetry adapted basis functions of A   symmetry.
   192 basis functions,   380 primitive gaussians,   206 cartesian basis functions
    51 alpha electrons       51 beta electrons
       nuclear repulsion energy       775.8025688487 Hartrees.
 NAtoms=   24 NActive=   24 NUniq=   24 SFac= 1.00D+00 NAtFMM=   60 NAOKFM=F Big=F
 Integral buffers will be    131072 words long.
 Raffenetti 2 integral format.
 Two-electron integral symmetry is turned on.
 One-electron integrals computed using PRISM.
   1 Symmetry operations used in ECPInt.
 ECPInt:  NShTT=    3081 NPrTT=   15444 LenC2=    2979 LenP2D=   10187.
 LDataN:  DoStor=T MaxTD1= 7 Len=  274
 NBasis=   192 RedAO= T EigKep=  2.55D-03  NBF=   192
 NBsUse=   192 1.00D-06 EigRej= -1.00D+00 NBFU=   192
 Defaulting to unpruned grid for atomic number  79.
 ExpMin= 2.79D-02 ExpMax= 2.52D+04 ExpMxC= 3.78D+03 IAcc=3 IRadAn=         5 AccDes= 0.00D+00
 Harris functional with IExCor=  402 and IRadAn=       5 diagonalized for initial guess.
 HarFok:  IExCor=  402 AccDes= 0.00D+00 IRadAn=         5 IDoV= 1 UseB2=F ITyADJ=14
 ICtDFT=  3500011 ScaDFX=  1.000000  1.000000  1.000000  1.000000
 Defaulting to unpruned grid for atomic number  79.
 Defaulting to unpruned grid for atomic number  79.
 Defaulting to unpruned grid for atomic number  79.
 Defaulting to unpruned grid for atomic number  79.
 Defaulting to unpruned grid for atomic number  79.
 Defaulting to unpruned grid for atomic number  79.
 Defaulting to unpruned grid for atomic number  79.
 Defaulting to unpruned grid for atomic number  79.
 FoFCou: FMM=F IPFlag=           0 FMFlag=      100000 FMFlg1=           0
         NFxFlg=           0 DoJE=T BraDBF=F KetDBF=T FulRan=T
         wScrn=  0.000000 ICntrl=     500 IOpCl=  0 I1Cent=   200000004 NGrid=           0
         NMat0=    1 NMatS0=      1 NMatT0=    0 NMatD0=    1 NMtDS0=    0 NMtDT0=    0
 Petite list used in FoFCou.
 Keep R1 ints in memory in canonical form, NReq=176236484.
 Requested convergence on RMS density matrix=1.00D-08 within 128 cycles.
 Requested convergence on MAX density matrix=1.00D-06.
 Requested convergence on             energy=1.00D-06.
 No special actions if energy rises.
 Defaulting to unpruned grid for atomic number  79.
 Defaulting to unpruned grid for atomic number  79.
 Defaulting to unpruned grid for atomic number  79.
 Defaulting to unpruned grid for atomic number  79.
 Defaulting to unpruned grid for atomic number  79.
 Defaulting to unpruned grid for atomic number  79.
 Defaulting to unpruned grid for atomic number  79.
 Defaulting to unpruned grid for atomic number  79.
 SCF Done:  E(RB3LYP) =  -1174.79850183     A.U. after   12 cycles
            NFock= 12  Conv=0.80D-08     -V/T= 2.0887

 **********************************************************************

            Population analysis using the SCF density.

 **********************************************************************

 Orbital symmetries:
       Occupied  (A) (A) (A) (A) (A) (A) (A) (A) (A) (A) (A) (A)
                 (A) (A) (A) (A) (A) (A) (A) (A) (A) (A) (A) (A)
                 (A) (A) (A) (A) (A) (A) (A) (A) (A) (A) (A) (A)
                 (A) (A) (A) (A) (A) (A) (A) (A) (A) (A) (A) (A)
                 (A) (A) (A)
       Virtual   (A) (A) (A) (A) (A) (A) (A) (A) (A) (A) (A) (A)
                 (A) (A) (A) (A) (A) (A) (A) (A) (A) (A) (A) (A)
                 (A) (A) (A) (A) (A) (A) (A) (A) (A) (A) (A) (A)
                 (A) (A) (A) (A) (A) (A) (A) (A) (A) (A) (A) (A)
                 (A) (A) (A) (A) (A) (A) (A) (A) (A) (A) (A) (A)
                 (A) (A) (A) (A) (A) (A) (A) (A) (A) (A) (A) (A)
                 (A) (A) (A) (A) (A) (A) (A) (A) (A) (A) (A) (A)
                 (A) (A) (A) (A) (A) (A) (A) (A) (A) (A) (A) (A)
                 (A) (A) (A) (A) (A) (A) (A) (A) (A) (A) (A) (A)
                 (A) (A) (A) (A) (A) (A) (A) (A) (A) (A) (A) (A)
                 (A) (A) (A) (A) (A) (A) (A) (A) (A) (A) (A) (A)
                 (A) (A) (A) (A) (A) (A) (A) (A) (A)
 The electronic state is 1-A.
 Alpha  occ. eigenvalues -- -101.44288 -77.13056 -10.22065 -10.22050 -10.21992
 Alpha  occ. eigenvalues --  -10.20669 -10.19940 -10.19864  -9.37338  -7.13361
 Alpha  occ. eigenvalues --   -7.12840  -7.12839  -6.61003  -4.77144  -4.77136
 Alpha  occ. eigenvalues --   -4.76938  -4.16478  -2.31139  -2.28995  -2.28981
 Alpha  occ. eigenvalues --   -0.83046  -0.78863  -0.78664  -0.72438  -0.69767
 Alpha  occ. eigenvalues --   -0.65669  -0.64745  -0.57071  -0.49915  -0.48428
 Alpha  occ. eigenvalues --   -0.48171  -0.46540  -0.45014  -0.43854  -0.41485
 Alpha  occ. eigenvalues --   -0.40773  -0.40457  -0.39426  -0.39227  -0.38168
 Alpha  occ. eigenvalues --   -0.37791  -0.35509  -0.35444  -0.32405  -0.32344
 Alpha  occ. eigenvalues --   -0.29948  -0.29941  -0.28107  -0.26618  -0.23620
 Alpha  occ. eigenvalues --   -0.23605
 Alpha virt. eigenvalues --   -0.01336  -0.01192   0.00572   0.03232   0.04979
 Alpha virt. eigenvalues --    0.05263   0.07563   0.08696   0.09016   0.09991
 Alpha virt. eigenvalues --    0.10394   0.11425   0.12724   0.13618   0.13873
 Alpha virt. eigenvalues --    0.14608   0.15147   0.15306   0.15801   0.16998
 Alpha virt. eigenvalues --    0.18012   0.18321   0.19580   0.19737   0.20500
 Alpha virt. eigenvalues --    0.22124   0.22745   0.26496   0.30944   0.35840
 Alpha virt. eigenvalues --    0.36571   0.38902   0.39702   0.40431   0.42121
 Alpha virt. eigenvalues --    0.42956   0.48417   0.50351   0.51994   0.53240
 Alpha virt. eigenvalues --    0.54483   0.55822   0.56455   0.56845   0.57200
 Alpha virt. eigenvalues --    0.58262   0.58946   0.61356   0.62445   0.64968
 Alpha virt. eigenvalues --    0.65705   0.67953   0.68574   0.71560   0.73707
 Alpha virt. eigenvalues --    0.76053   0.79414   0.80913   0.81737   0.83947
 Alpha virt. eigenvalues --    0.83973   0.84568   0.85138   0.86125   0.86394
 Alpha virt. eigenvalues --    0.87913   0.88146   0.89019   0.90495   0.91358
 Alpha virt. eigenvalues --    0.92783   0.95081   0.95513   0.95812   0.96416
 Alpha virt. eigenvalues --    0.97619   0.98169   0.98853   1.00200   1.00687
 Alpha virt. eigenvalues --    1.01269   1.01916   1.06386   1.07043   1.15372
 Alpha virt. eigenvalues --    1.18529   1.24525   1.34429   1.46794   1.49516
 Alpha virt. eigenvalues --    1.49811   1.51953   1.53008   1.55513   1.64683
 Alpha virt. eigenvalues --    1.67040   1.73306   1.81373   1.82008   1.87282
 Alpha virt. eigenvalues --    1.89120   1.90509   1.92321   1.94083   1.94470
 Alpha virt. eigenvalues --    1.95501   1.95687   1.97098   1.97897   1.99476
 Alpha virt. eigenvalues --    1.99523   2.00674   2.00952   2.01027   2.01761
 Alpha virt. eigenvalues --    2.02579   2.02970   2.08588   2.10549   2.11474
 Alpha virt. eigenvalues --    2.15173   2.23294   2.24252   2.25321   2.26001
 Alpha virt. eigenvalues --    2.27078   2.28733   2.29989   2.30385   2.31271
 Alpha virt. eigenvalues --    2.31358   2.31567   2.32111   2.57442   2.58285
 Alpha virt. eigenvalues --    2.61292   2.62282  15.59047  15.59599  15.66534
 Alpha virt. eigenvalues --   43.10299
          Condensed to atoms (all electrons):
               1          2          3          4          5          6
     1  P   13.581569   0.315401  -0.036464  -0.032206  -0.031197   0.004777
     2  C    0.315401   5.228264   0.362086   0.373246   0.356874  -0.028250
     3  C   -0.036464   0.362086   5.062915  -0.027583  -0.032257   0.374377
     4  H   -0.032206   0.373246  -0.027583   0.526177  -0.030185  -0.004521
     5  H   -0.031197   0.356874  -0.032257  -0.030185   0.564009  -0.004111
     6  H    0.004777  -0.028250   0.374377  -0.004521  -0.004111   0.550220
     7  H   -0.009771  -0.031978   0.384621  -0.003295   0.003976  -0.026650
     8  H   -0.006147  -0.037760   0.381471   0.004399  -0.003435  -0.030091
     9  C    0.311313  -0.029505   0.001580  -0.001445  -0.002256  -0.000053
    10  C   -0.036046  -0.001981   0.000059   0.001160  -0.000134   0.000000
    11  H   -0.028744   0.001913  -0.000025   0.000033  -0.000008   0.000000
    12  H   -0.030986  -0.004161   0.000000  -0.000266   0.003062  -0.000002
    13  H    0.004677  -0.000015   0.000000  -0.000053  -0.000005   0.000000
    14  H   -0.010400  -0.000047  -0.000004  -0.000012   0.000003   0.000000
    15  H   -0.005593   0.001626  -0.000019   0.003025   0.000161   0.000002
    16  C    0.305106  -0.027138  -0.001555   0.002016  -0.004287   0.000003
    17  C   -0.025690  -0.003442  -0.000573   0.000017   0.001901  -0.000004
    18  H   -0.031998   0.001932   0.000039  -0.000023  -0.000018   0.000001
    19  H   -0.030794  -0.002307   0.001359   0.000013  -0.000155  -0.000041
    20  H    0.004239   0.000027  -0.000004   0.000001  -0.000068   0.000000
    21  H   -0.007173  -0.000179   0.000029  -0.000009  -0.000001   0.000000
    22  H   -0.006923   0.001609   0.000362   0.000003   0.002688  -0.000009
    23  Au   0.349681  -0.031139  -0.000044  -0.004313   0.004867  -0.000573
    24  Cl  -0.002554   0.000017  -0.000017  -0.000009  -0.000001   0.000000
               7          8          9         10         11         12
     1  P   -0.009771  -0.006147   0.311313  -0.036046  -0.028744  -0.030986
     2  C   -0.031978  -0.037760  -0.029505  -0.001981   0.001913  -0.004161
     3  C    0.384621   0.381471   0.001580   0.000059  -0.000025   0.000000
     4  H   -0.003295   0.004399  -0.001445   0.001160   0.000033  -0.000266
     5  H    0.003976  -0.003435  -0.002256  -0.000134  -0.000008   0.003062
     6  H   -0.026650  -0.030091  -0.000053   0.000000   0.000000  -0.000002
     7  H    0.492467  -0.028428   0.000012  -0.000004   0.000000   0.000000
     8  H   -0.028428   0.558513   0.000006  -0.000001   0.000000   0.000001
     9  C    0.000012   0.000006   5.235551   0.363283   0.370346   0.359299
    10  C   -0.000004  -0.000001   0.363283   5.060667  -0.028267  -0.032513
    11  H    0.000000   0.000000   0.370346  -0.028267   0.531605  -0.029757
    12  H    0.000000   0.000001   0.359299  -0.032513  -0.029757   0.560593
    13  H    0.000000   0.000000  -0.028837   0.373876  -0.004813  -0.003905
    14  H   -0.000001   0.000000  -0.031517   0.384444  -0.003319   0.003865
    15  H    0.000001   0.000001  -0.037732   0.381477   0.004429  -0.003164
    16  C   -0.000148   0.001806  -0.028208   0.001554  -0.001089  -0.002621
    17  C    0.000013   0.000274  -0.003617   0.000070  -0.000224   0.001450
    18  H   -0.000007   0.000000  -0.002385   0.000006   0.001638  -0.000170
    19  H   -0.000080   0.001867   0.001831  -0.000021   0.000030  -0.000027
    20  H    0.000000  -0.000017   0.000030   0.000000  -0.000014  -0.000044
    21  H   -0.000001  -0.000005   0.002228  -0.000012   0.000414   0.002764
    22  H   -0.000008   0.000968  -0.000301  -0.000007   0.000030   0.000059
    23  Au   0.010329  -0.000787  -0.032029   0.000402  -0.002777   0.004805
    24  Cl  -0.000074  -0.000001   0.000018  -0.000017  -0.000009  -0.000001
              13         14         15         16         17         18
     1  P    0.004677  -0.010400  -0.005593   0.305106  -0.025690  -0.031998
     2  C   -0.000015  -0.000047   0.001626  -0.027138  -0.003442   0.001932
     3  C    0.000000  -0.000004  -0.000019  -0.001555  -0.000573   0.000039
     4  H   -0.000053  -0.000012   0.003025   0.002016   0.000017  -0.000023
     5  H   -0.000005   0.000003   0.000161  -0.004287   0.001901  -0.000018
     6  H    0.000000   0.000000   0.000002   0.000003  -0.000004   0.000001
     7  H    0.000000  -0.000001   0.000001  -0.000148   0.000013  -0.000007
     8  H    0.000000   0.000000   0.000001   0.001806   0.000274   0.000000
     9  C   -0.028837  -0.031517  -0.037732  -0.028208  -0.003617  -0.002385
    10  C    0.373876   0.384444   0.381477   0.001554   0.000070   0.000006
    11  H   -0.004813  -0.003319   0.004429  -0.001089  -0.000224   0.001638
    12  H   -0.003905   0.003865  -0.003164  -0.002621   0.001450  -0.000170
    13  H    0.552252  -0.026648  -0.030003  -0.000051   0.000000  -0.000002
    14  H   -0.026648   0.491516  -0.028245   0.000012  -0.000002  -0.000004
    15  H   -0.030003  -0.028245   0.555313   0.000015  -0.000004   0.000002
    16  C   -0.000051   0.000012   0.000015   5.244052   0.347125   0.375032
    17  C    0.000000  -0.000002  -0.000004   0.347125   5.061529  -0.032924
    18  H   -0.000002  -0.000004   0.000002   0.375032  -0.032924   0.520448
    19  H    0.000000  -0.000001   0.000000   0.374072  -0.033620  -0.024858
    20  H    0.000000   0.000000   0.000000  -0.029309   0.378385  -0.003689
    21  H    0.000003   0.000000   0.000003  -0.035208   0.382078  -0.003113
    22  H    0.000000   0.000000   0.000000  -0.035811   0.381755   0.004253
    23  Au  -0.000604   0.010667  -0.000344  -0.031372   0.003015  -0.001392
    24  Cl   0.000000  -0.000081  -0.000003   0.000015   0.000000  -0.000016
              19         20         21         22         23         24
     1  P   -0.030794   0.004239  -0.007173  -0.006923   0.349681  -0.002554
     2  C   -0.002307   0.000027  -0.000179   0.001609  -0.031139   0.000017
     3  C    0.001359  -0.000004   0.000029   0.000362  -0.000044  -0.000017
     4  H    0.000013   0.000001  -0.000009   0.000003  -0.004313  -0.000009
     5  H   -0.000155  -0.000068  -0.000001   0.002688   0.004867  -0.000001
     6  H   -0.000041   0.000000   0.000000  -0.000009  -0.000573   0.000000
     7  H   -0.000080   0.000000  -0.000001  -0.000008   0.010329  -0.000074
     8  H    0.001867  -0.000017  -0.000005   0.000968  -0.000787  -0.000001
     9  C    0.001831   0.000030   0.002228  -0.000301  -0.032029   0.000018
    10  C   -0.000021   0.000000  -0.000012  -0.000007   0.000402  -0.000017
    11  H    0.000030  -0.000014   0.000414   0.000030  -0.002777  -0.000009
    12  H   -0.000027  -0.000044   0.002764   0.000059   0.004805  -0.000001
    13  H    0.000000   0.000000   0.000003   0.000000  -0.000604   0.000000
    14  H   -0.000001   0.000000   0.000000   0.000000   0.010667  -0.000081
    15  H    0.000000   0.000000   0.000003   0.000000  -0.000344  -0.000003
    16  C    0.374072  -0.029309  -0.035208  -0.035811  -0.031372   0.000015
    17  C   -0.033620   0.378385   0.382078   0.381755   0.003015   0.000000
    18  H   -0.024858  -0.003689  -0.003113   0.004253  -0.001392  -0.000016
    19  H    0.518572  -0.003977   0.004229  -0.003088  -0.001378  -0.000017
    20  H   -0.003977   0.543507  -0.029211  -0.029411  -0.000276   0.000000
    21  H    0.004229  -0.029211   0.553535  -0.030776   0.000397   0.000000
    22  H   -0.003088  -0.029411  -0.030776   0.554802   0.000169   0.000000
    23  Au  -0.001378  -0.000276   0.000397   0.000169  18.456765   0.265227
    24  Cl  -0.000017   0.000000   0.000000   0.000000   0.265227  17.125698
 Mulliken charges:
               1
     1  P    0.455922
     2  C   -0.445093
     3  C   -0.470353
     4  H    0.193831
     5  H    0.170579
     6  H    0.164924
     7  H    0.209025
     8  H    0.157366
     9  C   -0.447611
    10  C   -0.467995
    11  H    0.188608
    12  H    0.171720
    13  H    0.164127
    14  H    0.209775
    15  H    0.159053
    16  C   -0.454012
    17  C   -0.457512
    18  H    0.197248
    19  H    0.198390
    20  H    0.169830
    21  H    0.160008
    22  H    0.159637
    23  Au   0.000705
    24  Cl  -0.388174
 Sum of Mulliken charges =   0.00000
 Mulliken charges with hydrogens summed into heavy atoms:
               1
     1  P    0.455922
     2  C   -0.080683
     3  C    0.060963
     9  C   -0.087283
    10  C    0.064960
    16  C   -0.058374
    17  C    0.031963
    23  Au   0.000705
    24  Cl  -0.388174
 Electronic spatial extent (au):  <R**2>=           2985.4678
 Charge=              0.0000 electrons
 Dipole moment (field-independent basis, Debye):
    X=             10.5329    Y=              0.6843    Z=              0.3293  Tot=             10.5602
 Quadrupole moment (field-independent basis, Debye-Ang):
   XX=           -101.4641   YY=            -85.1161   ZZ=            -85.8495
   XY=             -1.3359   XZ=             -1.4525   YZ=             -0.2058
 Traceless Quadrupole moment (field-independent basis, Debye-Ang):
   XX=            -10.6542   YY=              5.6938   ZZ=              4.9604
   XY=             -1.3359   XZ=             -1.4525   YZ=             -0.2058
 Octapole moment (field-independent basis, Debye-Ang**2):
  XXX=            -29.0741  YYY=              3.0791  ZZZ=             -9.0252  XYY=            -26.3163
  XXY=              1.2987  XXZ=             -3.0465  XZZ=            -25.8782  YZZ=             -4.3577
  YYZ=             -2.8531  XYZ=              0.6248
 Hexadecapole moment (field-independent basis, Debye-Ang**3):
 XXXX=          -2725.3823 YYYY=           -868.6047 ZZZZ=           -586.8993 XXXY=            -11.2491
 XXXZ=             -6.7549 YYYX=             13.0960 YYYZ=              0.9007 ZZZX=              8.7272
 ZZZY=             -2.8105 XXYY=           -566.8879 XXZZ=           -516.1739 YYZZ=           -244.3210
 XXYZ=              1.8526 YYXZ=              0.5662 ZZXY=             -7.5794
 N-N= 7.758025688487D+02 E-N=-4.287471158262D+03  KE= 1.079057979769D+03
   1 Symmetry operations used in ECPInt.
 ECPInt:  NShTT=    3081 NPrTT=   15444 LenC2=    2979 LenP2D=   10187.
 LDataN:  DoStor=T MaxTD1= 8 Len=  415
 Calling FoFJK, ICntrl=      2127 FMM=F ISym2X=0 I1Cent= 0 IOpClX= 0 NMat=1 NMatS=1 NMatT=0.
 Defaulting to unpruned grid for atomic number  79.
 Defaulting to unpruned grid for atomic number  79.
 Defaulting to unpruned grid for atomic number  79.
 Defaulting to unpruned grid for atomic number  79.
 Defaulting to unpruned grid for atomic number  79.
 Defaulting to unpruned grid for atomic number  79.
 Defaulting to unpruned grid for atomic number  79.
 Defaulting to unpruned grid for atomic number  79.
 ***** Axes restored to original set *****
 -------------------------------------------------------------------
 Center     Atomic                   Forces (Hartrees/Bohr)
 Number     Number              X              Y              Z
 -------------------------------------------------------------------
      1       15          -0.010371254   -0.000764606    0.000081472
      2        6           0.002374186    0.000460723   -0.001082926
      3        6          -0.000561860    0.000398692    0.000436241
      4        1          -0.000383753    0.000022172   -0.000038711
      5        1           0.001055667   -0.000314357    0.000911898
      6        1           0.000017999   -0.000387538    0.000049847
      7        1           0.000361770    0.000185586   -0.000316069
      8        1           0.000026543   -0.000186639   -0.000138757
      9        6           0.002393670   -0.001093269    0.000541885
     10        6          -0.000592989    0.000206133   -0.000692918
     11        1          -0.000248534    0.000150598   -0.000203605
     12        1           0.001028956    0.001029657   -0.000305359
     13        1           0.000030173    0.000228933    0.000289552
     14        1           0.000399155   -0.000359542    0.000176551
     15        1          -0.000078850    0.000019828    0.000155992
     16        6           0.002799144    0.001007638    0.001308352
     17        6          -0.000793891   -0.000895889   -0.001144993
     18        1          -0.000380561   -0.000258477    0.000031653
     19        1          -0.000425176    0.000187815   -0.000149970
     20        1           0.000972905    0.000120077    0.000034546
     21        1           0.000363132    0.000149911   -0.000061810
     22        1           0.000264521   -0.000094547    0.000165068
     23       79          -0.009834230   -0.000739395   -0.000290202
     24       17           0.011583277    0.000926496    0.000242266
 -------------------------------------------------------------------
 Cartesian Forces:  Max     0.011583277 RMS     0.002287778

 GradGradGradGradGradGradGradGradGradGradGradGradGradGradGradGradGradGrad
 Berny optimization.
 FormGI is forming the generalized inverse of G from B-inverse, IUseBI=4.
 Internal  Forces:  Max     0.011621505 RMS     0.001196732
 Search for a local minimum.
 Step number   1 out of a maximum of  131
 All quantities printed in internal units (Hartrees-Bohrs-Radians)
 Mixed Optimization -- RFO/linear search
 Second derivative matrix not updated -- first step.
 ITU=  0
     Eigenvalues ---    0.00230   0.00230   0.00307   0.00311   0.00315
     Eigenvalues ---    0.00454   0.00489   0.00489   0.03207   0.03445
     Eigenvalues ---    0.03450   0.04701   0.04806   0.04809   0.05292
     Eigenvalues ---    0.05373   0.05376   0.05606   0.05607   0.05629
     Eigenvalues ---    0.06139   0.06173   0.06294   0.08601   0.08602
     Eigenvalues ---    0.09011   0.12369   0.12371   0.12644   0.16000
     Eigenvalues ---    0.16000   0.16000   0.16000   0.16000   0.16000
     Eigenvalues ---    0.16000   0.16000   0.16000   0.16479   0.16815
     Eigenvalues ---    0.17410   0.21860   0.21955   0.21967   0.21971
     Eigenvalues ---    0.22305   0.22476   0.22477   0.28994   0.29018
     Eigenvalues ---    0.29048   0.34090   0.34101   0.34102   0.34107
     Eigenvalues ---    0.34163   0.34190   0.34191   0.34203   0.34208
     Eigenvalues ---    0.34233   0.34244   0.34245   0.34258   0.34271
     Eigenvalues ---    0.34320
 RFO step:  Lambda=-1.15817570D-03 EMin= 2.30000000D-03
 Linear search not attempted -- first point.
 Iteration  1 RMS(Cart)=  0.01538200 RMS(Int)=  0.00022809
 Iteration  2 RMS(Cart)=  0.00029283 RMS(Int)=  0.00003408
 Iteration  3 RMS(Cart)=  0.00000008 RMS(Int)=  0.00003408
 Variable       Old X    -DE/DX   Delta X   Delta X   Delta X     New X
                                 (Linear)    (Quad)   (Total)
    R1        3.49791   0.00097   0.00000   0.00431   0.00431   3.50222
    R2        3.49795   0.00116   0.00000   0.00512   0.00512   3.50307
    R3        3.50298   0.00092   0.00000   0.00409   0.00409   3.50706
    R4        4.31284  -0.00175   0.00000  -0.00798  -0.00798   4.30486
    R5        2.89903   0.00001   0.00000   0.00002   0.00002   2.89905
    R6        2.07008   0.00012   0.00000   0.00034   0.00034   2.07042
    R7        2.07179   0.00097   0.00000   0.00283   0.00283   2.07462
    R8        2.06921   0.00017   0.00000   0.00048   0.00048   2.06969
    R9        2.07011  -0.00042   0.00000  -0.00121  -0.00121   2.06889
   R10        2.06919   0.00022   0.00000   0.00064   0.00064   2.06983
   R11        2.89964   0.00011   0.00000   0.00036   0.00036   2.90001
   R12        2.07150   0.00029   0.00000   0.00085   0.00085   2.07235
   R13        2.07159   0.00096   0.00000   0.00282   0.00282   2.07441
   R14        2.06939   0.00017   0.00000   0.00050   0.00050   2.06989
   R15        2.06989  -0.00042   0.00000  -0.00123  -0.00123   2.06866
   R16        2.06897   0.00012   0.00000   0.00034   0.00034   2.06931
   R17        2.90017   0.00083   0.00000   0.00286   0.00286   2.90302
   R18        2.07161   0.00003   0.00000   0.00008   0.00008   2.07169
   R19        2.07055  -0.00004   0.00000  -0.00011  -0.00011   2.07045
   R20        2.06981   0.00020   0.00000   0.00058   0.00058   2.07039
   R21        2.06793   0.00028   0.00000   0.00081   0.00081   2.06874
   R22        2.06875   0.00028   0.00000   0.00080   0.00080   2.06955
   R23        4.47005  -0.01162   0.00000  -0.06631  -0.06631   4.40374
    A1        1.84233  -0.00053   0.00000  -0.01006  -0.01024   1.83209
    A2        1.86712  -0.00096   0.00000  -0.01278  -0.01294   1.85418
    A3        1.96971   0.00073   0.00000   0.01119   0.01125   1.98096
    A4        1.85042  -0.00067   0.00000  -0.01140  -0.01157   1.83884
    A5        1.98188   0.00049   0.00000   0.00936   0.00942   1.99130
    A6        1.94347   0.00072   0.00000   0.01033   0.01040   1.95387
    A7        1.99206  -0.00109   0.00000  -0.00503  -0.00505   1.98700
    A8        1.85671  -0.00006   0.00000  -0.00491  -0.00494   1.85177
    A9        1.88251   0.00129   0.00000   0.01353   0.01354   1.89605
   A10        1.92314   0.00032   0.00000  -0.00324  -0.00329   1.91985
   A11        1.93623  -0.00024   0.00000  -0.00019  -0.00019   1.93603
   A12        1.86742  -0.00016   0.00000   0.00020   0.00022   1.86763
   A13        1.91557   0.00056   0.00000   0.00441   0.00441   1.91997
   A14        1.94183  -0.00036   0.00000  -0.00257  -0.00257   1.93926
   A15        1.95334   0.00001   0.00000  -0.00055  -0.00055   1.95279
   A16        1.88500   0.00002   0.00000   0.00133   0.00133   1.88633
   A17        1.87897  -0.00024   0.00000  -0.00093  -0.00093   1.87804
   A18        1.88672   0.00001   0.00000  -0.00164  -0.00165   1.88507
   A19        1.99316  -0.00117   0.00000  -0.00497  -0.00500   1.98816
   A20        1.85478   0.00010   0.00000  -0.00391  -0.00394   1.85083
   A21        1.88269   0.00128   0.00000   0.01420   0.01420   1.89689
   A22        1.92598   0.00022   0.00000  -0.00462  -0.00466   1.92132
   A23        1.92991  -0.00008   0.00000   0.00141   0.00141   1.93132
   A24        1.87197  -0.00028   0.00000  -0.00187  -0.00186   1.87011
   A25        1.91495   0.00049   0.00000   0.00406   0.00406   1.91901
   A26        1.94209  -0.00029   0.00000  -0.00205  -0.00205   1.94004
   A27        1.95311   0.00006   0.00000  -0.00043  -0.00043   1.95268
   A28        1.88574   0.00006   0.00000   0.00187   0.00187   1.88760
   A29        1.87843  -0.00024   0.00000  -0.00099  -0.00099   1.87744
   A30        1.88714  -0.00008   0.00000  -0.00243  -0.00243   1.88471
   A31        2.03325   0.00160   0.00000   0.00858   0.00857   2.04182
   A32        1.84669  -0.00062   0.00000  -0.00242  -0.00244   1.84426
   A33        1.85368  -0.00071   0.00000  -0.00385  -0.00386   1.84981
   A34        1.93293  -0.00021   0.00000   0.00103   0.00102   1.93395
   A35        1.93265  -0.00020   0.00000   0.00039   0.00040   1.93304
   A36        1.85391   0.00001   0.00000  -0.00516  -0.00517   1.84874
   A37        1.90875   0.00131   0.00000   0.00897   0.00896   1.91771
   A38        1.95333   0.00012   0.00000   0.00034   0.00033   1.95367
   A39        1.95526  -0.00006   0.00000  -0.00078  -0.00078   1.95448
   A40        1.87762  -0.00067   0.00000  -0.00339  -0.00340   1.87422
   A41        1.87675  -0.00058   0.00000  -0.00281  -0.00282   1.87393
   A42        1.88897  -0.00019   0.00000  -0.00267  -0.00267   1.88630
   A43        3.15087  -0.00011   0.00000  -0.03074  -0.03074   3.12013
   A44        3.14018  -0.00006   0.00000  -0.01792  -0.01792   3.12225
    D1       -3.08935   0.00063   0.00000   0.00734   0.00731  -3.08204
    D2        1.06929   0.00094   0.00000   0.01804   0.01799   1.08727
    D3       -0.92924   0.00055   0.00000   0.01384   0.01381  -0.91543
    D4       -1.12384  -0.00077   0.00000  -0.01552  -0.01548  -1.13931
    D5        3.03480  -0.00046   0.00000  -0.00482  -0.00480   3.03001
    D6        1.03628  -0.00085   0.00000  -0.00902  -0.00898   1.02730
    D7        1.01958  -0.00007   0.00000  -0.00436  -0.00435   1.01523
    D8       -1.10497   0.00024   0.00000   0.00634   0.00633  -1.09864
    D9       -3.10350  -0.00015   0.00000   0.00214   0.00215  -3.10135
   D10       -1.23887  -0.00094   0.00000  -0.01613  -0.01609  -1.25496
   D11        2.91687  -0.00056   0.00000  -0.00443  -0.00441   2.91246
   D12        0.91397  -0.00089   0.00000  -0.00704  -0.00700   0.90696
   D13        3.06711   0.00065   0.00000   0.00746   0.00742   3.07454
   D14        0.93967   0.00103   0.00000   0.01916   0.01911   0.95878
   D15       -1.06323   0.00070   0.00000   0.01654   0.01651  -1.04672
   D16        0.92775  -0.00009   0.00000  -0.00331  -0.00330   0.92445
   D17       -1.19969   0.00029   0.00000   0.00839   0.00839  -1.19130
   D18        3.08059  -0.00003   0.00000   0.00578   0.00579   3.08638
   D19       -0.97048   0.00071   0.00000   0.01450   0.01446  -0.95602
   D20       -3.12669   0.00040   0.00000   0.00931   0.00927  -3.11742
   D21        1.19089   0.00097   0.00000   0.01782   0.01777   1.20865
   D22        0.98951  -0.00061   0.00000  -0.00757  -0.00752   0.98199
   D23       -1.16671  -0.00091   0.00000  -0.01275  -0.01270  -1.17941
   D24       -3.13231  -0.00035   0.00000  -0.00425  -0.00421  -3.13653
   D25       -3.13013  -0.00001   0.00000   0.00271   0.00271  -3.12742
   D26        0.99684  -0.00032   0.00000  -0.00248  -0.00248   0.99437
   D27       -0.96876   0.00025   0.00000   0.00602   0.00602  -0.96275
   D28       -3.11005   0.00043   0.00000   0.01412   0.01411  -3.09594
   D29       -1.02478   0.00059   0.00000   0.01701   0.01700  -1.00778
   D30        1.08807   0.00035   0.00000   0.01271   0.01270   1.10077
   D31       -1.02253  -0.00015   0.00000   0.00203   0.00204  -1.02049
   D32        1.06274   0.00001   0.00000   0.00492   0.00493   1.06767
   D33       -3.10759  -0.00022   0.00000   0.00062   0.00063  -3.10696
   D34        1.04223  -0.00029   0.00000   0.00011   0.00012   1.04235
   D35        3.12751  -0.00013   0.00000   0.00300   0.00300   3.13051
   D36       -1.04282  -0.00037   0.00000  -0.00130  -0.00130  -1.04412
   D37       -3.11610   0.00041   0.00000   0.01544   0.01543  -3.10067
   D38       -1.03015   0.00062   0.00000   0.01911   0.01910  -1.01104
   D39        1.08327   0.00035   0.00000   0.01425   0.01425   1.09751
   D40       -1.02826  -0.00010   0.00000   0.00364   0.00365  -1.02460
   D41        1.05769   0.00011   0.00000   0.00732   0.00733   1.06502
   D42       -3.11208  -0.00016   0.00000   0.00246   0.00247  -3.10961
   D43        1.03999  -0.00037   0.00000  -0.00069  -0.00069   1.03930
   D44        3.12594  -0.00016   0.00000   0.00299   0.00299   3.12893
   D45       -1.04383  -0.00043   0.00000  -0.00187  -0.00187  -1.04570
   D46        3.12571  -0.00003   0.00000   0.00043   0.00043   3.12613
   D47       -1.07862   0.00007   0.00000   0.00230   0.00230  -1.07632
   D48        1.04672  -0.00013   0.00000  -0.00149  -0.00149   1.04523
   D49       -1.04644   0.00015   0.00000   0.00437   0.00438  -1.04206
   D50        1.03242   0.00025   0.00000   0.00625   0.00625   1.03868
   D51       -3.12542   0.00004   0.00000   0.00246   0.00246  -3.12296
   D52        1.00551  -0.00010   0.00000  -0.00113  -0.00114   1.00437
   D53        3.08437   0.00000   0.00000   0.00074   0.00074   3.08511
   D54       -1.07347  -0.00021   0.00000  -0.00305  -0.00305  -1.07653
         Item               Value     Threshold  Converged?
 Maximum Force            0.011622     0.000450     NO 
 RMS     Force            0.001197     0.000300     NO 
 Maximum Displacement     0.125054     0.001800     NO 
 RMS     Displacement     0.015323     0.001200     NO 
 Predicted change in Energy=-5.839041D-04
 GradGradGradGradGradGradGradGradGradGradGradGradGradGradGradGradGradGrad

                          Input orientation:                          
 ---------------------------------------------------------------------
 Center     Atomic      Atomic             Coordinates (Angstroms)
 Number     Number       Type             X           Y           Z
 ---------------------------------------------------------------------
      1         15           0        1.313896    0.116144   -0.035181
      2          6           0        2.071031   -0.523143    1.530946
      3          6           0        1.735431   -1.990271    1.828271
      4          1           0        1.693066    0.118070    2.334920
      5          1           0        3.157266   -0.371327    1.482922
      6          1           0        2.174012   -2.288195    2.786615
      7          1           0        0.652954   -2.142901    1.887940
      8          1           0        2.130416   -2.663319    1.059705
      9          6           0        1.955027    1.847158   -0.205228
     10          6           0        1.349181    2.836406    0.799454
     11          1           0        1.718577    2.158681   -1.229761
     12          1           0        3.049050    1.827178   -0.117323
     13          1           0        1.740020    3.842886    0.615018
     14          1           0        0.258745    2.872314    0.710014
     15          1           0        1.595107    2.570550    1.832865
     16          6           0        2.100893   -0.837659   -1.419055
     17          6           0        3.635441   -0.825585   -1.489587
     18          1           0        1.665489   -0.435133   -2.341143
     19          1           0        1.724302   -1.862791   -1.331334
     20          1           0        3.974258   -1.433919   -2.335449
     21          1           0        4.030237    0.185118   -1.634665
     22          1           0        4.090719   -1.241595   -0.584583
     23         79           0       -0.958255   -0.042209   -0.076309
     24         17           0       -3.285315   -0.145482   -0.144881
 ---------------------------------------------------------------------
                    Distance matrix (angstroms):
                    1          2          3          4          5
     1  P    0.000000
     2  C    1.853293   0.000000
     3  C    2.843788   1.534110   0.000000
     4  H    2.400240   1.095621   2.168776   0.000000
     5  H    2.437268   1.097843   2.182169   1.763318   0.000000
     6  H    3.805677   2.168574   1.095233   2.495084   2.518091
     7  H    3.039494   2.182201   1.094811   2.528559   3.094203
     8  H    3.096917   2.192247   1.095308   3.090885   2.546912
     9  C    1.853745   2.940422   4.348471   3.083945   3.035935
    10  C    2.845643   3.513221   4.950199   3.140902   3.745110
    11  H    2.400572   3.864959   5.154187   4.107517   3.978620
    12  H    2.438266   3.032709   4.481501   3.282262   2.721382
    13  H    3.806959   4.473332   5.957996   4.102989   4.530058
    14  H    3.043868   3.935409   5.203444   3.504776   4.418146
    15  H    3.097222   3.144614   4.562982   2.505258   3.349245
    16  C    1.855859   2.966870   3.465141   3.895134   3.123277
    17  C    2.896846   3.415036   3.996838   4.392056   3.044800
    18  H    2.396870   3.894263   4.450546   4.708753   4.105233
    19  H    2.400964   3.179233   3.162194   4.167277   3.492547
    20  H    3.843365   4.404634   4.760088   5.424468   4.046793
    21  H    3.153032   3.789619   4.689390   4.607002   3.284974
    22  H    3.139434   3.011773   3.453949   4.015087   2.429666
    23  Au   2.278034   3.462823   3.831228   3.587369   4.413278
    24  Cl   4.607952   5.625075   5.701268   5.568047   6.648879
                    6          7          8          9         10
     6  H    0.000000
     7  H    1.772666   0.000000
     8  H    1.767720   1.771920   0.000000
     9  C    5.108837   4.690129   4.687773   0.000000
    10  C    5.557939   5.144223   5.561028   1.534617   0.000000
    11  H    6.009442   5.418415   5.353779   1.096642   2.171054
    12  H    5.112225   5.052117   4.732214   1.097730   2.179123
    13  H    6.518767   6.215439   6.533058   2.168401   1.095341
    14  H    5.883143   5.166749   5.853944   2.183114   1.094686
    15  H    4.985195   4.807006   5.317680   2.192411   1.095034
    16  C    4.449388   3.838802   3.078661   2.950066   4.357248
    17  C    4.749832   4.694490   3.484430   3.408360   4.886396
    18  H    5.475978   4.671920   4.092278   3.139238   4.546028
    19  H    4.164217   3.404405   2.553985   3.883950   5.173338
    20  H    5.496018   5.419478   4.054411   4.402340   5.912218
    21  H    5.395420   5.406890   4.356896   3.018635   4.488020
    22  H    4.016729   4.329428   2.927075   3.774319   5.105065
    23  Au   4.801237   3.296539   4.207211   3.474700   3.791787
    24  Cl   6.556610   4.861276   6.092673   5.606732   5.591241
                   11         12         13         14         15
    11  H    0.000000
    12  H    1.765664   0.000000
    13  H    2.498042   2.512560   0.000000
    14  H    2.530436   3.092345   1.773473   0.000000
    15  H    3.092663   2.543578   1.767198   1.771361   0.000000
    16  C    3.026558   3.113657   5.116168   4.657289   4.737795
    17  C    3.556363   3.043700   5.460457   5.469439   5.170627
    18  H    2.822386   3.460877   5.200566   4.714625   5.144068
    19  H    4.022759   4.104224   6.028539   5.360614   5.448244
    20  H    4.383768   4.051030   6.445289   6.451630   6.250679
    21  H    3.066377   2.441601   4.866768   5.190634   4.862501
    22  H    4.195854   3.274260   5.728593   5.769251   5.157964
    23  Au   3.652368   4.422079   4.780437   3.254818   4.122028
    24  Cl   5.614718   6.634480   6.460535   4.732685   5.925102
                   16         17         18         19         20
    16  C    0.000000
    17  C    1.536215   0.000000
    18  H    1.096290   2.181355   0.000000
    19  H    1.095633   2.180204   1.749681   0.000000
    20  H    2.169055   1.095606   2.515556   2.500896   0.000000
    21  H    2.194294   1.094729   2.544770   3.098915   1.765082
    22  H    2.195202   1.095160   3.101230   2.558017   1.765243
    23  Au   3.434253   4.869606   3.488250   3.476452   5.600915
    24  Cl   5.577980   7.082911   5.423829   5.427069   7.691558
                   21         22         23         24
    21  H    0.000000
    22  H    1.772524   0.000000
    23  Au   5.231175   5.214307   0.000000
    24  Cl   7.473021   7.469985   2.330360   0.000000
 Stoichiometry    C6H15AuClP
 Framework group  C1[X(C6H15AuClP)]
 Deg. of freedom    66
 Full point group                 C1      NOp   1
 Largest Abelian subgroup         C1      NOp   1
 Largest concise Abelian subgroup C1      NOp   1
                         Standard orientation:                         
 ---------------------------------------------------------------------
 Center     Atomic      Atomic             Coordinates (Angstroms)
 Number     Number       Type             X           Y           Z
 ---------------------------------------------------------------------
      1         15           0        1.319556    0.128077   -0.038074
      2          6           0        2.083931   -0.510518    1.524815
      3          6           0        1.762430   -1.981970    1.816297
      4          1           0        1.700567    0.123759    2.331728
      5          1           0        3.168646   -0.348254    1.476603
      6          1           0        2.204563   -2.279708    2.773065
      7          1           0        0.681490   -2.145060    1.876147
      8          1           0        2.163143   -2.648066    1.044646
      9          6           0        1.944183    1.865757   -0.201415
     10          6           0        1.329821    2.845068    0.807822
     11          1           0        1.703991    2.179278   -1.224467
     12          1           0        3.038415    1.855746   -0.114417
     13          1           0        1.710995    3.855949    0.627273
     14          1           0        0.239024    2.871048    0.719352
     15          1           0        1.579063    2.577265    1.839935
     16          6           0        2.114425   -0.812507   -1.426489
     17          6           0        3.648734   -0.785651   -1.498125
     18          1           0        1.674510   -0.410293   -2.346570
     19          1           0        1.747597   -1.841505   -1.342741
     20          1           0        3.992609   -1.387247   -2.346761
     21          1           0        4.033857    0.229328   -1.639302
     22          1           0        4.108635   -1.201092   -0.595199
     23         79           0       -0.951031   -0.051553   -0.078150
     24         17           0       -3.277066   -0.176511   -0.145399
 ---------------------------------------------------------------------
 Rotational constants (GHZ):      1.1492145      0.4111212      0.3807725
 Basis read from rwf:  (5D, 7F)
 Pseudo-potential data read from rwf file.
 There are   206 symmetry adapted cartesian basis functions of A   symmetry.
 There are   192 symmetry adapted basis functions of A   symmetry.
   192 basis functions,   380 primitive gaussians,   206 cartesian basis functions
    51 alpha electrons       51 beta electrons
       nuclear repulsion energy       777.2801604603 Hartrees.
 NAtoms=   24 NActive=   24 NUniq=   24 SFac= 1.00D+00 NAtFMM=   60 NAOKFM=F Big=F
 Integral buffers will be    131072 words long.
 Raffenetti 2 integral format.
 Two-electron integral symmetry is turned on.
 One-electron integrals computed using PRISM.
   1 Symmetry operations used in ECPInt.
 ECPInt:  NShTT=    3081 NPrTT=   15444 LenC2=    2979 LenP2D=   10191.
 LDataN:  DoStor=T MaxTD1= 7 Len=  274
 NBasis=   192 RedAO= T EigKep=  2.56D-03  NBF=   192
 NBsUse=   192 1.00D-06 EigRej= -1.00D+00 NBFU=   192
 Defaulting to unpruned grid for atomic number  79.
 Initial guess from the checkpoint file:  "/home/scr/guest2/Gau-31662.chk"
 B after Tr=     0.000000    0.000000    0.000000
         Rot=    0.999993   -0.002201   -0.000507   -0.002875 Ang=  -0.42 deg.
 ExpMin= 2.79D-02 ExpMax= 2.52D+04 ExpMxC= 3.78D+03 IAcc=3 IRadAn=         5 AccDes= 0.00D+00
 Harris functional with IExCor=  402 and IRadAn=       5 diagonalized for initial guess.
 HarFok:  IExCor=  402 AccDes= 0.00D+00 IRadAn=         5 IDoV= 1 UseB2=F ITyADJ=14
 ICtDFT=  3500011 ScaDFX=  1.000000  1.000000  1.000000  1.000000
 Defaulting to unpruned grid for atomic number  79.
 Defaulting to unpruned grid for atomic number  79.
 Defaulting to unpruned grid for atomic number  79.
 Defaulting to unpruned grid for atomic number  79.
 Defaulting to unpruned grid for atomic number  79.
 Defaulting to unpruned grid for atomic number  79.
 Defaulting to unpruned grid for atomic number  79.
 Defaulting to unpruned grid for atomic number  79.
 FoFCou: FMM=F IPFlag=           0 FMFlag=      100000 FMFlg1=           0
         NFxFlg=           0 DoJE=T BraDBF=F KetDBF=T FulRan=T
         wScrn=  0.000000 ICntrl=     500 IOpCl=  0 I1Cent=   200000004 NGrid=           0
         NMat0=    1 NMatS0=      1 NMatT0=    0 NMatD0=    1 NMtDS0=    0 NMtDT0=    0
 Petite list used in FoFCou.
 Keep R1 ints in memory in canonical form, NReq=176236484.
 Requested convergence on RMS density matrix=1.00D-08 within 128 cycles.
 Requested convergence on MAX density matrix=1.00D-06.
 Requested convergence on             energy=1.00D-06.
 No special actions if energy rises.
 Defaulting to unpruned grid for atomic number  79.
 Defaulting to unpruned grid for atomic number  79.
 Defaulting to unpruned grid for atomic number  79.
 Defaulting to unpruned grid for atomic number  79.
 Defaulting to unpruned grid for atomic number  79.
 Defaulting to unpruned grid for atomic number  79.
 Defaulting to unpruned grid for atomic number  79.
 Defaulting to unpruned grid for atomic number  79.
 SCF Done:  E(RB3LYP) =  -1174.79922135     A.U. after   10 cycles
            NFock= 10  Conv=0.46D-08     -V/T= 2.0887
   1 Symmetry operations used in ECPInt.
 ECPInt:  NShTT=    3081 NPrTT=   15444 LenC2=    2979 LenP2D=   10191.
 LDataN:  DoStor=T MaxTD1= 8 Len=  415
 Calling FoFJK, ICntrl=      2127 FMM=F ISym2X=0 I1Cent= 0 IOpClX= 0 NMat=1 NMatS=1 NMatT=0.
 Defaulting to unpruned grid for atomic number  79.
 Defaulting to unpruned grid for atomic number  79.
 Defaulting to unpruned grid for atomic number  79.
 Defaulting to unpruned grid for atomic number  79.
 Defaulting to unpruned grid for atomic number  79.
 Defaulting to unpruned grid for atomic number  79.
 Defaulting to unpruned grid for atomic number  79.
 Defaulting to unpruned grid for atomic number  79.
 ***** Axes restored to original set *****
 -------------------------------------------------------------------
 Center     Atomic                   Forces (Hartrees/Bohr)
 Number     Number              X              Y              Z
 -------------------------------------------------------------------
      1       15          -0.002385016   -0.001450946    0.000390398
      2        6           0.001220252    0.000345856   -0.000054590
      3        6          -0.000049795    0.000062880    0.000118924
      4        1          -0.000045507   -0.000000442    0.000239794
      5        1          -0.000319439   -0.000025582   -0.000001932
      6        1          -0.000072794   -0.000135244   -0.000033371
      7        1          -0.000083632   -0.000100698    0.000003382
      8        1           0.000026778   -0.000070722   -0.000025483
      9        6           0.000693507    0.000019188   -0.000115538
     10        6          -0.000041590    0.000139142   -0.000111082
     11        1          -0.000043426    0.000179441   -0.000152876
     12        1          -0.000338970   -0.000179339   -0.000046577
     13        1          -0.000067935    0.000019261    0.000121838
     14        1          -0.000045155    0.000037469    0.000046695
     15        1           0.000038147    0.000018162    0.000120413
     16        6           0.001718374    0.000250327    0.000130342
     17        6          -0.000742515   -0.000087621   -0.000080169
     18        1          -0.000043981   -0.000098390   -0.000239730
     19        1          -0.000091671   -0.000152198   -0.000137006
     20        1          -0.000089141    0.000017011    0.000009913
     21        1           0.000063147    0.000064740    0.000038399
     22        1           0.000036351   -0.000007490    0.000046043
     23       79          -0.004236634    0.001631753   -0.000512542
     24       17           0.004900645   -0.000476559    0.000244752
 -------------------------------------------------------------------
 Cartesian Forces:  Max     0.004900645 RMS     0.000908919

 GradGradGradGradGradGradGradGradGradGradGradGradGradGradGradGradGradGrad
 Berny optimization.
 Using GEDIIS/GDIIS optimizer.
 FormGI is forming the generalized inverse of G from B-inverse, IUseBI=4.
 Internal  Forces:  Max     0.004879039 RMS     0.000556488
 Search for a local minimum.
 Step number   2 out of a maximum of  131
 All quantities printed in internal units (Hartrees-Bohrs-Radians)
 Mixed Optimization -- En-DIIS/RFO-DIIS
 Update second derivatives using D2CorX and points    1    2
 DE= -7.20D-04 DEPred=-5.84D-04 R= 1.23D+00
 TightC=F SS=  1.41D+00  RLast= 1.10D-01 DXNew= 5.0454D-01 3.2898D-01
 Trust test= 1.23D+00 RLast= 1.10D-01 DXMaxT set to 3.29D-01
 ITU=  1  0
 Use linear search instead of GDIIS.
     Eigenvalues ---    0.00229   0.00245   0.00307   0.00313   0.00328
     Eigenvalues ---    0.00455   0.00489   0.00490   0.03157   0.03461
     Eigenvalues ---    0.03593   0.04668   0.04826   0.04827   0.05298
     Eigenvalues ---    0.05391   0.05400   0.05571   0.05577   0.05582
     Eigenvalues ---    0.05762   0.06084   0.06451   0.08544   0.08587
     Eigenvalues ---    0.09131   0.11610   0.12351   0.12526   0.12707
     Eigenvalues ---    0.16000   0.16000   0.16000   0.16000   0.16000
     Eigenvalues ---    0.16000   0.16000   0.16008   0.16164   0.16369
     Eigenvalues ---    0.16630   0.21786   0.21948   0.21963   0.22112
     Eigenvalues ---    0.22303   0.22448   0.22491   0.29015   0.29044
     Eigenvalues ---    0.29273   0.34094   0.34097   0.34104   0.34159
     Eigenvalues ---    0.34179   0.34188   0.34199   0.34207   0.34231
     Eigenvalues ---    0.34242   0.34244   0.34256   0.34269   0.34318
     Eigenvalues ---    0.34435
 RFO step:  Lambda=-3.27565405D-03 EMin= 2.29116559D-03
 Quartic linear search produced a step of  0.30271.
 Maximum step size (   0.329) exceeded in Quadratic search.
    -- Step size scaled by   0.458
 Iteration  1 RMS(Cart)=  0.07763995 RMS(Int)=  0.01119946
 Iteration  2 RMS(Cart)=  0.02972540 RMS(Int)=  0.00115100
 Iteration  3 RMS(Cart)=  0.00124689 RMS(Int)=  0.00009277
 Iteration  4 RMS(Cart)=  0.00000149 RMS(Int)=  0.00009277
 Iteration  5 RMS(Cart)=  0.00000000 RMS(Int)=  0.00009277
 Variable       Old X    -DE/DX   Delta X   Delta X   Delta X     New X
                                 (Linear)    (Quad)   (Total)
    R1        3.50222   0.00049   0.00130   0.00624   0.00754   3.50976
    R2        3.50307   0.00030   0.00155   0.00667   0.00822   3.51129
    R3        3.50706   0.00055   0.00124   0.00614   0.00738   3.51444
    R4        4.30486  -0.00073  -0.00242  -0.01116  -0.01357   4.29129
    R5        2.89905   0.00027   0.00001   0.00056   0.00056   2.89961
    R6        2.07042   0.00019   0.00010   0.00072   0.00082   2.07125
    R7        2.07462  -0.00031   0.00086   0.00276   0.00362   2.07824
    R8        2.06969  -0.00001   0.00015   0.00053   0.00068   2.07037
[...]
 472,0.00011445,0.00005355,-0.00017960,0.00006849,0.00025741,-0.0000856
 1,0.00042347,-0.00007566,0.00008238,0.00546242,-0.00401647,-0.00688609
 ,-0.00200167,-0.00195293,0.00088437,0.00013744,0.00049529,0.00004134,0
 .00005840,0.00067900,-0.00049341,0.00065721,-0.00074314,-0.00057978,0.
 00036608,-0.00024935,0.00002738,-0.00001502,0.00010319,0.00000446,0.45
 208304,0.01545402,-0.07280753,-0.02784475,-0.00473786,0.00775392,0.007
 23394,-0.00054162,0.00165868,-0.00066648,0.00199647,-0.00142332,0.0031
 4490,0.00027397,-0.00016968,-0.00044306,0.00009931,-0.00017593,-0.0001
 6687,-0.00005936,-0.00007136,0.00004607,0.00028309,-0.00042158,-0.0000
 7884,0.01106028,-0.00890040,-0.01784791,-0.00412267,-0.00429731,0.0029
 6838,0.00080649,0.00164868,-0.00013183,-0.00016464,0.00088507,-0.00022
 048,0.00095123,-0.00112715,-0.00159821,0.00021815,0.00007785,0.0001351
 7,-0.00010655,-0.00004076,-0.00035848,0.03113896,0.51565920,0.02256264
 ,-0.02901544,-0.09300872,0.00918545,-0.01130939,-0.01203163,-0.0001859
 1,-0.00044894,0.00077306,-0.00226318,0.00219272,-0.00371030,0.00024887
 ,-0.00045624,0.00087330,0.00001463,-0.00012519,0.00005611,0.00016035,0
 .00017967,-0.00011087,0.00021797,0.00001838,-0.00031530,-0.00214702,0.
 00144095,0.00422675,0.00092768,0.00195053,-0.00060228,-0.00022654,-0.0
 0008259,0.00034461,0.00029266,-0.00009547,-0.00028873,0.00002973,0.000
 64484,0.00050478,0.00021145,-0.00021660,-0.00008936,0.00002952,0.00001
 375,0.00012619,0.04925821,-0.07185432,0.45833714,-0.01162093,0.0056353
 5,0.00845392,0.00159951,-0.00057515,-0.00040829,-0.00036421,-0.0000810
 7,-0.00025378,-0.00034782,0.00030327,-0.00061550,-0.00035956,-0.000311
 29,0.00014569,0.00004479,0.00006273,-0.00007356,-0.00002267,-0.0000125
 5,0.00007187,0.00020753,0.00005944,0.00009779,0.00166642,-0.00027351,-
 0.00070810,-0.00063203,-0.00058179,0.00026952,0.00006590,0.00011478,-0
 .00004601,-0.00054343,0.00034399,-0.00020217,0.00011916,-0.00016002,-0
 .00016281,-0.00002658,0.00011330,0.00009717,0.00000884,0.00003725,-0.0
 0000720,-0.18925612,-0.00569733,-0.00492126,0.46780373,0.01481044,-0.0
 0053396,-0.00204735,-0.00109150,-0.00044440,-0.00009226,0.00015810,-0.
 00040102,0.00006354,0.00031543,0.00005611,0.00020204,0.00043222,0.0004
 2492,0.00005190,-0.00004954,0.00005852,0.00006283,0.00004751,0.0000318
 1,0.00002049,-0.00018004,0.00013758,0.00004394,0.00036103,0.00051922,0
 .00066853,-0.00010857,-0.00018315,-0.00005734,0.00017169,-0.00018047,0
 .00008349,-0.00017622,-0.00035800,-0.00063864,-0.00007246,-0.00005201,
 0.00000763,-0.00022725,0.00011916,0.00008225,0.00000758,0.00007515,0.0
 0008190,0.00215159,-0.07957042,0.00429338,0.00541062,0.57823546,0.0214
 0574,-0.00176686,-0.00279392,-0.00002822,0.00048605,0.00076076,-0.0000
 8080,-0.00027395,-0.00037303,-0.00012104,0.00005864,0.00038045,-0.0000
 7273,-0.00035057,-0.00049093,-0.00002854,0.00010295,-0.00000204,-0.000
 13552,-0.00002133,0.00019474,0.00019874,0.00041492,0.00004901,-0.00106
 523,0.00037361,-0.00024521,0.00045236,0.00008402,0.00019565,0.00009891
 ,-0.00010333,0.00010825,0.00050825,-0.00024932,0.00014134,-0.00014286,
 -0.00003162,0.00001375,-0.00011979,0.00000828,-0.00009444,-0.00000404,
 0.00002462,-0.00001813,0.00658867,0.00465506,-0.07625071,0.01042692,-0
 .00312153,0.57456004,0.00405327,-0.00556727,0.00840038,-0.00143917,0.0
 0209914,0.00181842,0.00014150,0.00031184,-0.00011311,0.00061201,-0.000
 31234,0.00090053,0.00008782,0.00015530,0.00014376,-0.00001257,-0.00001
 421,0.00004165,-0.00001896,-0.00003759,-0.00002662,-0.00014780,0.00000
 838,-0.00011556,-0.00017715,-0.00029820,-0.00056896,-0.00002515,-0.000
 16870,0.00011134,0.00015138,0.00003527,-0.00002947,-0.00002435,-0.0000
 0978,0.00000282,-0.00000474,-0.00001185,-0.00005026,-0.00002508,0.0000
 2705,0.00000887,-0.00002249,-0.00000433,-0.00000395,-0.08184157,0.0365
 5335,-0.08178221,-0.01402826,0.01313619,-0.02899751,0.09349128,-0.0046
 7146,0.00456241,-0.01431618,0.00203707,-0.00278083,-0.00243117,0.00019
 621,-0.00048892,0.00008044,-0.00062986,0.00056337,-0.00120179,-0.00002
 045,-0.00008547,0.00021637,-0.00001925,0.00019269,0.00011336,0.0000099
 1,0.00007510,-0.00000181,-0.00011974,0.00034542,0.00007585,-0.00051848
 ,0.00068223,0.00053829,0.00026784,0.00014590,0.00001412,0.00008418,-0.
 00047555,0.00016447,0.00002341,-0.00002164,-0.00006204,-0.00003121,0.0
 0005016,0.00008695,0.00000161,0.00000410,-0.00000652,-0.00002477,0.000
 06989,0.00009791,0.03427784,-0.08190321,0.08328705,-0.00036905,0.00039
 976,-0.00112924,-0.04166304,0.08917724,-0.00682482,0.00798541,-0.01842
 614,0.00319013,-0.00320256,-0.00243879,-0.00000455,-0.00041404,0.00035
 503,-0.00085794,0.00074423,-0.00126923,0.00002622,-0.00012293,0.000464
 26,-0.00001045,0.00005080,-0.00000418,0.00002586,0.00007016,-0.0000489
 1,0.00002280,0.00001484,0.00012519,-0.00029689,0.00055696,0.00089473,0
 .00027407,-0.00003133,0.00010973,-0.00009672,-0.00085679,0.00028313,0.
 00007245,0.00002888,-0.00001653,-0.00000437,0.00001683,0.00006846,0.00
 002551,-0.00000982,-0.00002261,-0.00002396,0.00013814,0.00015927,-0.08
 697258,0.09002159,-0.23912482,0.00137574,-0.00153740,0.00314105,0.0897
 4097,-0.09348650,0.25385947,0.00372387,0.01014287,-0.00280141,-0.00021
 977,-0.00057821,-0.00039780,0.00035436,-0.00043491,-0.00005322,-0.0000
 6529,0.00011301,-0.00011134,0.00000519,0.00002813,-0.00000650,-0.00010
 809,0.00004556,0.00010635,-0.00010378,0.00003375,0.00008020,-0.0000046
 9,0.00028792,0.00000429,-0.00143598,0.00103477,0.00288264,0.00088067,0
 .00082399,-0.00033954,-0.00017874,-0.00042299,0.00005523,0.00014468,0.
 00011663,0.00018084,-0.00019609,0.00027667,0.00027764,-0.00003842,-0.0
 0002145,-0.00004010,-0.00000478,-0.00000140,0.00005820,-0.07664584,-0.
 08369760,0.00603301,-0.01324272,-0.03228979,0.00269115,0.00337495,0.01
 113667,-0.00007730,0.08796498,-0.00432213,-0.01310763,0.00140510,0.000
 06356,0.00017184,0.00000280,0.00025874,-0.00036382,-0.00000541,0.00002
 036,0.00004793,0.00000517,0.00007099,-0.00001584,0.00004301,-0.0000538
 8,0.00023239,0.00016167,0.00000542,0.00004023,0.00000197,-0.00015850,0
 .00045801,0.00034593,0.00235914,-0.00064587,-0.00252935,-0.00079238,-0
 .00066508,0.00051883,0.00007939,0.00044031,-0.00000037,-0.00001115,0.0
 0032675,0.00000232,0.00014284,-0.00022512,-0.00028113,0.00000250,-0.00
 001120,0.00001935,0.00000122,-0.00001692,-0.00008330,-0.08758906,-0.28
 303292,0.02007167,0.00083741,0.00282162,-0.00030011,-0.00356783,-0.011
 68418,0.00064381,0.09241885,0.30201659,-0.00628109,-0.02113858,0.00069
 424,-0.00042798,0.00088279,0.00072578,0.00012736,-0.00015434,-0.000572
 09,0.00024947,0.00005578,0.00025572,0.00007619,-0.00003048,-0.00005271
 ,-0.00002549,0.00027557,0.00019321,0.00002847,0.00005209,-0.00004759,-
 0.00031888,0.00057119,-0.00072778,0.00299086,-0.00135998,-0.00453361,-
 0.00105054,-0.00149626,0.00091913,0.00017455,0.00011381,0.00015956,-0.
 00006980,0.00031242,-0.00001323,0.00027828,-0.00041676,-0.00046921,0.0
 0003564,0.00001773,0.00001496,-0.00003971,0.00006206,-0.00005002,0.002
 37131,0.01296954,-0.04479752,0.00050037,0.00072229,-0.00019766,0.00956
 317,0.02830496,-0.00119835,-0.00834365,-0.02016100,0.04856572,-0.00509
 562,-0.00090381,-0.00115052,-0.00022419,0.00003441,-0.00034304,0.00008
 323,0.00007028,0.00009265,0.00020263,-0.00004504,0.00001915,0.00032596
 ,0.00001267,0.00020297,0.00000586,-0.00005696,0.00001301,0.00003100,0.
 00005493,-0.00005152,-0.00001820,-0.00006487,-0.00002634,-0.00023132,-
 0.00038762,0.00000378,0.00017959,0.00022168,-0.00003653,-0.00000871,0.
 00002059,0.00000096,0.00028149,0.00021037,0.00006553,0.00002118,0.0000
 6616,0.00004846,0.00008575,-0.00009732,-0.00004316,-0.00001345,-0.0000
 2654,-0.00000251,-0.01490990,0.01849980,0.02643278,-0.06956904,0.04371
 282,0.06190683,0.00149094,0.00026600,-0.00028967,0.00157339,-0.0003166
 9,0.00012821,0.07874971,-0.00076960,0.00028261,0.00081053,0.00007449,0
 .00012952,0.00006727,-0.00002064,0.00002346,-0.00005116,-0.00006346,-0
 .00000301,-0.00002095,-0.00007754,-0.00012844,-0.00005087,0.00000205,0
 .00001302,-0.00001009,-0.00001233,0.00000299,0.00000744,0.00002278,0.0
 0003231,0.00001116,-0.00027527,-0.00001515,-0.00020426,0.00025906,0.00
 013795,0.00006129,-0.00001146,0.00003617,0.00000933,0.00030809,0.00024
 170,0.00021429,-0.00001888,0.00000885,0.00001122,0.00002468,-0.0000871
 2,-0.00008277,-0.00000317,-0.00001570,-0.00002636,0.00000527,0.0005475
 5,0.00107481,0.04345219,-0.13016030,-0.11444631,0.00026185,-0.00011971
 ,0.00000419,0.00015260,0.00059462,0.00044528,-0.04745451,0.13651169,-0
 .00090633,0.00076032,0.00082507,-0.00022899,-0.00011186,0.00003268,0.0
 0008209,-0.00008693,0.00002921,0.00019053,-0.00000575,0.00000903,0.000
 26273,0.00013552,0.00028472,-0.00000728,0.00000571,-0.00001730,0.00002
 670,0.00004420,-0.00001574,-0.00003292,-0.00007138,-0.00000971,0.00001
 340,0.00004257,0.00011450,-0.00002050,-0.00002507,0.00000391,0.0000307
 2,-0.00003321,-0.00000712,-0.00001813,0.00005537,-0.00006862,0.0000037
 9,-0.00001239,-0.00000416,0.00000290,0.00000923,0.00000393,-0.00000359
 ,0.00001025,0.00000765,0.00043452,0.00053657,0.00053886,0.06152714,-0.
 11437802,-0.21127651,0.00022818,0.00018704,0.00069148,0.00028233,0.000
 25711,0.00004472,-0.06745200,0.12559700,0.22562223,0.00005329,-0.00223
 255,-0.00068561,-0.00005405,0.00031470,0.00018111,0.00006016,-0.000035
 99,-0.00006249,0.00007000,-0.00003797,0.00009646,0.00003888,-0.0000407
 6,0.00004596,0.00000149,0.00005222,0.00003362,0.00001625,-0.00000481,-
 0.00005283,-0.00009844,0.00003352,-0.00003426,-0.00005345,-0.00012093,
 -0.00001578,0.00032685,0.00032950,0.00003367,-0.00011846,0.00015718,-0
 .00008583,0.00045632,0.00088910,0.00054505,-0.00002982,0.00002149,0.00
 004180,0.00004414,-0.00014886,-0.00011566,0.00001639,-0.00005210,-0.00
 007853,-0.01264907,-0.03165056,0.00457374,-0.08274909,-0.08753430,0.01
 043058,0.00128479,0.00019881,-0.00036060,-0.00685111,0.00084593,0.0002
 3571,0.00358836,0.00927856,-0.00234134,0.09161291,-0.00009431,-0.00040
 413,-0.00055184,-0.00009857,0.00015652,0.00010565,0.00006733,-0.000067
 00,-0.00011547,-0.00001129,-0.00001073,0.00004237,0.00001333,-0.000100
 87,0.00002289,-0.00000542,0.00002063,0.00001947,-0.00001940,0.00004256
 ,0.00002029,0.00002847,0.00009090,0.00000241,-0.00035297,-0.00031540,-
 0.00033260,0.00034965,0.00020442,-0.00000848,-0.00005878,0.00000077,0.
 00006845,0.00106829,-0.00019876,-0.00013828,-0.00003365,0.00005532,0.0
 0004130,0.00004734,-0.00008017,-0.00007287,-0.00001163,-0.00001274,-0.
 00000403,0.00051954,0.00401862,-0.00024915,-0.08870198,-0.27759630,0.0
 2902405,-0.00054874,0.00035967,-0.00016200,0.00087974,0.00147432,-0.00
 022742,-0.00593881,-0.01648313,0.00290325,0.09663422,0.29977911,0.0005
 8664,0.00127966,0.00018398,0.00006820,-0.00010361,-0.00005457,-0.00001
 333,0.00012242,0.00017012,0.00000605,-0.00002415,-0.00002909,-0.000066
 56,0.00019061,-0.00004166,0.00000474,-0.00004500,-0.00000490,0.0000214
 7,-0.00007371,-0.00005976,-0.00008914,-0.00017297,0.00000421,0.0004414
 3,-0.00001186,0.00033958,-0.00024053,-0.00004841,-0.00019752,-0.000127
 47,0.00003241,-0.00005863,-0.00002307,-0.00069565,-0.00019724,0.000010
 17,0.00002029,0.00001600,-0.00004393,0.00007974,0.00008042,0.00002627,
 -0.00000775,0.00000347,0.00078578,0.00083599,-0.00100612,0.01026521,0.
 02873985,-0.05412587,-0.00001714,-0.00058374,0.00015228,0.00009976,-0.
 00003854,0.00089700,-0.01045646,-0.02483079,0.00420417,-0.01244283,-0.
 03091245,0.05202929,0.00015615,0.00012542,-0.00236257,-0.00014038,0.00
 016398,0.00007145,0.00007900,0.00017259,0.00040541,0.00033653,-0.00006
 116,0.00002809,0.00039747,0.00026035,0.00087349,0.00002709,-0.00007580
 ,-0.00006951,0.00007894,-0.00001839,-0.00018304,-0.00018820,-0.0004642
 1,0.00003236,-0.00006546,0.00008857,0.00034536,0.00007236,0.00007180,-
 0.00003881,-0.00002650,-0.00017315,0.00000185,0.00003740,0.00009242,-0
 .00001292,-0.00001017,0.00001847,0.00003290,0.00000621,-0.00001497,-0.
 00000770,-0.00000067,0.00002162,0.00003083,-0.01332236,0.01425518,-0.0
 2800470,-0.08886679,0.04025256,-0.08500522,-0.00681209,-0.00030141,0.0
 0102590,0.00123358,-0.00034263,-0.00003623,0.00395630,-0.00510839,0.00
 793065,0.00501649,-0.00366285,0.01124219,0.09800469,0.00058900,-0.0001
 2139,0.00117027,0.00052103,0.00036845,0.00024929,-0.00017979,0.0003134
 5,0.00009620,-0.00025284,-0.00011134,0.00004109,-0.00033131,-0.0001564
 2,-0.00062258,0.00001572,-0.00002045,-0.00000682,-0.00000616,-0.000136
 81,-0.00004110,-0.00002201,-0.00011013,-0.00006127,0.00011393,-0.00010
 735,-0.00025461,-0.00002757,0.00003622,-0.00000269,-0.00016221,0.00015
 449,-0.00004359,-0.00000508,-0.00014581,0.00019834,0.00000436,0.000002
 61,-0.00000298,0.00000471,-0.00000131,-0.00000484,0.00002128,-0.000027
 15,-0.00004831,0.00027220,-0.00024575,-0.00168528,0.04046421,-0.092887
 36,0.08804242,-0.00037434,0.00102341,-0.00018792,0.00015939,0.00036624
 ,-0.00057331,-0.00840991,0.00837608,-0.01579021,0.01282952,-0.01103627
 ,0.02636637,-0.04520027,0.09447538,0.00023197,-0.00046738,-0.00017828,
 -0.00004756,-0.00006970,-0.00048317,0.00005759,0.00005094,0.00006434,0
 .00014574,-0.00009743,0.00016944,0.00074385,-0.00021728,-0.00079129,0.
 00001143,-0.00004314,-0.00001523,0.00000455,-0.00001182,0.00000917,-0.
 00005975,-0.00004386,0.00002788,-0.00007687,0.00003637,0.00013889,0.00
 000968,0.00000532,-0.00004269,0.00003436,-0.00003362,0.00000594,-0.000
 03757,0.00005590,-0.00003426,-0.00000153,0.00001951,0.00000920,0.00000
 489,0.00000101,0.00000717,-0.00000537,0.00000113,0.00002142,0.00060891
 ,-0.00207573,0.00356487,-0.08573217,0.08819321,-0.23204655,0.00104051,
 -0.00037075,0.00121928,-0.00054321,-0.00015500,0.00011509,-0.00983536,
 0.01142008,-0.02105549,0.00006462,0.00041220,-0.00229249,0.09344646,-0
 .09668675,0.25148905,-0.11213729,-0.00538950,-0.00170717,-0.00181508,-
 0.00015266,-0.00031388,-0.00052612,0.00026062,-0.00013422,-0.00017731,
 -0.00008374,-0.00010621,0.00008493,-0.00009809,0.00012730,0.00009035,-
 0.00007852,0.00007946,-0.00014030,0.00034544,-0.00028868,0.00010485,-0
 .00000364,0.00000335,-0.00083886,-0.00050208,0.00002796,-0.00040574,-0
 .00040018,-0.00021759,-0.00016833,-0.00004838,0.00010463,0.00016381,0.
 00044270,-0.00004049,0.00011979,0.00011449,0.00001479,-0.00002058,-0.0
 0042891,-0.00013345,0.00008268,-0.00000905,0.00001193,-0.00288846,-0.0
 0000603,0.00033132,-0.00022533,0.00002620,0.00005504,-0.00014334,-0.00
 004432,0.00009272,-0.00020364,0.00006463,-0.00005810,0.00002468,-0.000
 07627,-0.00009349,0.00001354,0.00002634,0.00005518,0.00002310,0.000033
 73,0.00005301,0.23449963,-0.00563670,-0.03342731,0.00013791,0.00405173
 ,0.00216978,-0.00046853,0.00047498,0.00032342,-0.00029402,0.00010836,-
 0.00002166,0.00053715,0.00049388,-0.00015586,0.00138245,0.00024826,0.0
 0018058,0.00012469,0.00003408,0.00004395,-0.00023626,-0.00015606,0.000
 09484,-0.00007421,-0.01164145,0.00226452,-0.00079540,-0.00098915,0.000
 30045,0.00025620,0.00020828,0.00055539,-0.00007715,-0.00122349,-0.0033
 8638,0.00022953,-0.00022345,-0.00006524,0.00006226,0.00011026,0.000058
 39,0.00003038,0.00010478,-0.00002143,-0.00019236,0.00726467,0.00244598
 ,0.00060207,-0.00012167,-0.00074516,-0.00196332,-0.00001299,-0.0000703
 2,-0.00030635,-0.00024614,0.00089582,0.00094148,0.00073131,0.00008674,
 -0.00005129,0.00030534,0.00011888,-0.00013043,-0.00011859,-0.00000205,
 0.00011230,0.01451994,0.04141205,-0.00196053,0.00017661,-0.03311778,-0
 .01113428,-0.00104543,0.00270077,-0.00063262,-0.00045589,-0.00002772,0
 .00049462,-0.00018685,0.00119510,-0.00146220,0.00160666,-0.00276057,-0
 .00006130,0.00007658,-0.00001876,0.00007826,-0.00000146,-0.00004609,-0
 .00004192,0.00028449,0.00005217,0.00176519,-0.00027994,0.00187093,-0.0
 0019800,0.00012216,-0.00008650,-0.00032308,-0.00097852,0.00030432,0.00
 023877,0.00054891,0.00048315,-0.00019359,-0.00002471,0.00017593,-0.000
 08168,0.00013097,-0.00007667,0.00013045,0.00017559,0.00020997,0.010350
 93,0.00098118,0.00251865,-0.00014039,-0.00184013,-0.00210930,-0.000339
 25,0.00055108,0.00117528,-0.00004835,0.00007304,0.00014152,0.00100375,
 -0.00002157,0.00004135,-0.00001609,0.00014109,-0.00000510,0.00027609,-
 0.00017373,0.00011114,0.00471839,0.00038515,0.03887941,-0.00110659,-0.
 00084163,-0.00030402,-0.00247060,-0.00049683,0.00104956,-0.00003417,-0
 .00032537,-0.00023022,0.00010963,0.00000011,0.00005860,-0.00033888,0.0
 0045994,-0.00096326,-0.00009340,0.00021765,-0.00014191,-0.00003422,-0.
 00014100,0.00022570,-0.00000451,0.00002584,0.00008347,-0.00266591,0.00
 101842,-0.00038612,-0.00009469,0.00003497,0.00040239,0.00006862,0.0000
 1870,0.00001222,-0.00028150,-0.00113070,0.00011711,-0.00006444,-0.0002
 4209,-0.00010650,-0.00006195,0.00026281,-0.00001059,-0.00000045,0.0000
 5932,-0.00006768,-0.00230582,-0.00080608,-0.00097919,0.00033871,0.0007
 3571,0.00103831,0.00003476,-0.00008648,-0.00005252,0.00004327,-0.00001
 674,-0.00010813,-0.00052964,0.00004989,0.00008889,0.00000364,-0.000095
 84,-0.00009263,0.00000732,-0.00005759,-0.00011818,-0.11551697,-0.00828
 618,-0.00242318,0.12499778,-0.00060019,0.00824477,-0.00006981,-0.00089
 526,-0.00039595,0.00019385,-0.00011094,-0.00017048,0.00010229,-0.00000
 915,0.00000636,-0.00006264,-0.00011180,0.00008915,-0.00035163,-0.00000
 719,0.00001069,-0.00002723,0.00004993,-0.00006807,0.00004423,0.0000086
 4,-0.00000161,0.00001914,0.00178589,-0.00038235,0.00012281,0.00020021,
 -0.00017770,-0.00007973,-0.00000879,-0.00008294,-0.00000935,0.00020398
 ,0.00060309,-0.00004404,-0.00000307,0.00001256,0.00000601,-0.00005636,
 -0.00003898,-0.00000315,-0.00003011,0.00002167,0.00002052,-0.00143055,
 -0.00050823,-0.00023122,0.00005086,0.00023325,0.00048288,0.00000283,-0
 .00002153,0.00004179,0.00004193,-0.00011813,-0.00016885,-0.00019895,-0
 .00001267,0.00002197,-0.00003123,-0.00001621,0.00001170,0.00001887,-0.
 00000674,-0.00003551,-0.00851272,-0.01305540,-0.00024526,0.00964317,0.
 00583548,-0.00016503,-0.00009478,0.00827456,0.00186202,0.00018569,-0.0
 0050472,0.00012106,0.00015647,-0.00002225,-0.00004698,0.00006675,-0.00
 015802,0.00025859,-0.00030086,0.00053879,0.00000009,-0.00003412,0.0000
 0557,-0.00004746,-0.00001810,-0.00004413,-0.00002770,-0.00004274,0.000
 01397,-0.00038809,0.00008699,-0.00031816,0.00003768,-0.00007578,0.0000
 2661,0.00004599,0.00015172,-0.00002369,-0.00004670,-0.00012522,-0.0000
 6968,0.00000251,-0.00000574,-0.00002448,-0.00000084,-0.00000632,-0.000
 05016,0.00001839,-0.00002559,-0.00001024,-0.00179998,-0.00024144,-0.00
 052797,0.00003990,0.00039539,0.00047926,0.00004343,-0.00012813,-0.0001
 4909,0.00001079,0.00000243,-0.00006687,-0.00023096,0.00001124,0.000001
 14,0.00000953,-0.00002883,-0.00000756,-0.00002232,0.00002201,-0.000013
 45,-0.00258180,-0.00021227,-0.01161121,0.00290788,0.00026122,0.0042617
 8\\-0.00001603,0.00000610,0.00000016,0.00000589,-0.00000251,0.00000616
 ,0.00001093,0.00000626,0.00000313,0.00000941,0.00000142,-0.00000036,0.
 00000750,0.00000578,-0.00000792,0.00001169,0.00000291,0.00000238,0.000
 00888,0.00000041,0.00000707,0.00000576,0.00000180,0.00000282,-0.000000
 38,0.00000450,0.00000046,0.00000038,-0.00000301,-0.00000308,-0.0000053
 4,-0.00000057,-0.00000066,-0.00000063,-0.00000321,-0.00000680,-0.00000
 412,0.00000161,-0.00000419,-0.00000175,-0.00000007,0.00000266,0.000002
 95,0.00000255,-0.00000341,-0.00000251,-0.00000255,-0.00000009,-0.00000
 699,-0.00000105,-0.00000702,-0.00000795,-0.00000397,0.00000188,-0.0000
 0366,-0.00000102,0.00000399,-0.00000573,-0.00000110,-0.00000705,-0.000
 00616,-0.00000046,-0.00000859,-0.00000090,0.00000173,-0.00000726,0.000
 00649,-0.00000888,0.00000703,-0.00000772,-0.00000666,0.00001869\\\@


 ... UNTIL SCIENCE IS MIXED WITH EMOTION AND APPEALS TO THE HEART AND
 IMAGINATION , IT IS LIKE DEAD INORGANIC MATTER; AND WHEN IT IS SO MIXED
 AND SO TRANSFORMED IT IS LITERATURE.

                                  -- JOHN BURROUGHS
 Job cpu time:       0 days  0 hours 17 minutes 17.3 seconds.
 File lengths (MBytes):  RWF=    125 Int=      0 D2E=      0 Chk=      4 Scr=      1
 Normal termination of Gaussian 09 at Tue Dec 27 09:18:21 2022.
