 Entering Gaussian System, Link 0=g09
 Input=au-1to3-ts-2-af50-c-term-level3-freq-se-p.com
 Output=au-1to3-ts-2-af50-c-term-level3-freq-se-p.log
 Initial command:
 /home/scr/programs/g09/l1.exe "/home/scr/guest1/Gau-9791.inp" -scrdir="/home/scr/guest1/"
 Entering Link 1 = /home/scr/programs/g09/l1.exe PID=      9792.
  
 Copyright (c) 1988,1990,1992,1993,1995,1998,2003,2009,2013,
            Gaussian, Inc.  All Rights Reserved.
  
 This is part of the Gaussian(R) 09 program.  It is based on
 the Gaussian(R) 03 system (copyright 2003, Gaussian, Inc.),
 the Gaussian(R) 98 system (copyright 1998, Gaussian, Inc.),
 the Gaussian(R) 94 system (copyright 1995, Gaussian, Inc.),
 the Gaussian 92(TM) system (copyright 1992, Gaussian, Inc.),
 the Gaussian 90(TM) system (copyright 1990, Gaussian, Inc.),
 the Gaussian 88(TM) system (copyright 1988, Gaussian, Inc.),
 the Gaussian 86(TM) system (copyright 1986, Carnegie Mellon
 University), and the Gaussian 82(TM) system (copyright 1983,
 Carnegie Mellon University). Gaussian is a federally registered
 trademark of Gaussian, Inc.
  
 This software contains proprietary and confidential information,
 including trade secrets, belonging to Gaussian, Inc.
  
 This software is provided under written license and may be
 used, copied, transmitted, or stored only in accord with that
 written license.
  
 The following legend is applicable only to US Government
 contracts under FAR:
  
                    RESTRICTED RIGHTS LEGEND
  
 Use, reproduction and disclosure by the US Government is
 subject to restrictions as set forth in subparagraphs (a)
 and (c) of the Commercial Computer Software - Restricted
 Rights clause in FAR 52.227-19.
  
 Gaussian, Inc.
 340 Quinnipiac St., Bldg. 40, Wallingford CT 06492
  
  
 ---------------------------------------------------------------
 Warning -- This program may not be used in any manner that
 competes with the business of Gaussian, Inc. or will provide
 assistance to any competitor of Gaussian, Inc.  The licensee
 of this program is prohibited from giving any competitor of
 Gaussian, Inc. access to this program.  By using this program,
 the user acknowledges that Gaussian, Inc. is engaged in the
 business of creating and licensing software in the field of
 computational chemistry and represents and warrants to the
 licensee that it is not a competitor of Gaussian, Inc. and that
 it will not use this program in any manner prohibited above.
 ---------------------------------------------------------------
  

 Cite this work as:
 Gaussian 09, Revision D.01,
 M. J. Frisch, G. W. Trucks, H. B. Schlegel, G. E. Scuseria, 
 M. A. Robb, J. R. Cheeseman, G. Scalmani, V. Barone, B. Mennucci, 
 G. A. Petersson, H. Nakatsuji, M. Caricato, X. Li, H. P. Hratchian, 
 A. F. Izmaylov, J. Bloino, G. Zheng, J. L. Sonnenberg, M. Hada, 
 M. Ehara, K. Toyota, R. Fukuda, J. Hasegawa, M. Ishida, T. Nakajima, 
 Y. Honda, O. Kitao, H. Nakai, T. Vreven, J. A. Montgomery, Jr., 
 J. E. Peralta, F. Ogliaro, M. Bearpark, J. J. Heyd, E. Brothers, 
 K. N. Kudin, V. N. Staroverov, T. Keith, R. Kobayashi, J. Normand, 
 K. Raghavachari, A. Rendell, J. C. Burant, S. S. Iyengar, J. Tomasi, 
 M. Cossi, N. Rega, J. M. Millam, M. Klene, J. E. Knox, J. B. Cross, 
 V. Bakken, C. Adamo, J. Jaramillo, R. Gomperts, R. E. Stratmann, 
 O. Yazyev, A. J. Austin, R. Cammi, C. Pomelli, J. W. Ochterski, 
 R. L. Martin, K. Morokuma, V. G. Zakrzewski, G. A. Voth, 
 P. Salvador, J. J. Dannenberg, S. Dapprich, A. D. Daniels, 
 O. Farkas, J. B. Foresman, J. V. Ortiz, J. Cioslowski, 
 and D. J. Fox, Gaussian, Inc., Wallingford CT, 2013.
 
 ******************************************
 Gaussian 09:  EM64L-G09RevD.01 24-Apr-2013
                19-May-2023 
 ******************************************
 %mem=30000MB
 %nprocshared=8
 Will use up to    8 processors via shared memory.
 ----------------------------------------
 # opt freq=noraman b3lyp/gen pseudo=read
 ----------------------------------------
 1/14=-1,18=20,19=15,26=3,38=1/1,3;
 2/9=110,12=2,17=6,18=5,40=1/2;
 3/5=7,11=2,16=1,17=8,25=1,30=1,71=1,74=-5/1,2,3;
 4//1;
 5/5=2,38=5/2;
 6/7=2,8=2,9=2,10=2,28=1/1;
 7//1,2,3,16;
 1/14=-1,18=20,19=15,26=3/3(2);
 2/9=110/2;
 99//99;
 2/9=110/2;
 3/5=7,6=1,11=2,16=1,17=8,25=1,30=1,71=1,74=-5,82=7/1,2,3;
 4/5=5,16=3,69=1/1;
 5/5=2,38=5/2;
 7//1,2,3,16;
 1/14=-1,18=20,19=15,26=3/3(-5);
 2/9=110/2;
 6/7=2,8=2,9=2,10=2,19=2,28=1/1;
 99/9=1/99;
 -------------------
 Title Card Required
 -------------------
 Symbolic Z-matrix:
 Charge =  0 Multiplicity = 1
 Au                    1.8975   -0.04604  -0.74778 
 P                     3.35953  -0.11597   1.23862 
 C                     5.70532  -0.6972   -0.01032 
 H                     5.58631  -1.69282   0.41547 
 H                     5.38524  -0.73569  -1.06046 
 H                     6.76478  -0.41837   0.02668 
 C                     4.00634   1.55623   3.35364 
 H                     3.74928   2.57632   3.66412 
 H                     4.03254   0.92311   4.25455 
 H                     5.00112   1.56467   2.90819 
 C                     2.43956  -2.60933   1.98757 
 H                     1.58352  -2.27911   1.4006 
 H                     2.78876  -3.56606   1.58211 
 H                     2.10937  -2.76117   3.02531 
 N                    -6.62573   0.46202   1.94085 
 C                    -5.26593   0.97475   1.72969 
 C                    -4.82875   0.79687   0.26834 
 O                    -4.89583  -0.31954  -0.25462 
 C                    -4.3063    0.18792   2.64447 
 O                    -2.9495    0.56583   2.49608 
 N                    -4.43993   1.87857  -0.47643 
 C                    -4.08548   3.22446  -0.02927 
 C                    -2.85399   3.26174   0.89261 
 O                    -2.98988   3.2979    2.12033 
 N                    -1.63026   3.25789   0.31691 
 C                    -1.31932   2.99633  -1.08352 
 C                    -1.89639   1.65706  -1.56886 
 O                    -2.60286   1.5942   -2.57385 
 C                     0.21041   3.07709  -1.32884 
 S                     1.28979   2.20047  -0.11529 
 N                    -1.60643   0.60351  -0.78198 
 C                    -1.80331  -0.75428  -1.22795 
 C                    -0.94605  -1.14061  -2.48566 
 C                    -1.43682  -1.63999  -0.03479 
 O                    -0.44521  -1.3774    0.65176 
 N                    -2.19258  -2.73744   0.18921 
 C                    -3.48775  -3.05745  -0.38385 
 C                    -4.06176  -4.24156   0.36998 
 O                    -3.51896  -4.80604   1.29346 
 O                    -5.26253  -4.59486  -0.12316 
 H                    -4.66587   0.29645   3.67776 
 H                    -4.36146  -0.87258   2.3777 
 H                    -2.88492   1.51755   2.69748 
 H                    -5.23896   2.02626   2.02793 
 H                    -6.71357  -0.40715   1.41313 
 H                    -7.30577   1.10612   1.53979 
 H                    -4.89955   3.68287   0.53712 
 H                    -3.93144   3.82443  -0.93125 
 H                    -4.0911    1.61795  -1.3962 
 H                     0.52719   4.12304  -1.25019 
 H                     0.41413   2.73027  -2.34352 
 H                    -1.78176   3.75713  -1.72241 
 H                    -0.86776   3.14463   0.98156 
 H                    -1.55826  -1.00291  -3.38078 
 H                    -0.63355  -2.1861   -2.43434 
 H                    -2.85635  -0.87269  -1.49491 
 H                    -0.9268    0.71346  -0.03589 
 H                    -3.41947  -3.33773  -1.44384 
 H                    -4.19044  -2.21662  -0.3048 
 H                    -1.89566  -3.33479   0.95568 
 H                    -5.57435  -5.34923   0.41213 
 Se                    0.63365  -0.01799  -2.9095 
 N                     3.52581  -1.62419   1.95645 
 N                     3.00577   1.08937   2.38819 
 N                     4.94608   0.29801   0.76529 
 C                     4.59531  -1.896     2.91842 
 H                     4.21062  -1.9058    3.94891 
 H                     5.03537  -2.88053   2.71077 
 H                     5.38257  -1.14405   2.84373 
 C                     5.12155   1.64829   0.20295 
 H                     4.80129   1.6964   -0.84855 
 H                     4.54609   2.38353   0.76551 
 H                     6.18464   1.91028   0.25327 
 C                     1.66987   0.99413   2.99546 
 H                     1.6809    0.34932   3.88793 
 H                     1.33572   1.99403   3.29325 
 H                     0.94204   0.59152   2.28842 
 Cl                    2.64467  -2.25236  -1.30638 
 

 GradGradGradGradGradGradGradGradGradGradGradGradGradGradGradGradGradGrad
 Berny optimization.
 Initialization pass.
                           ----------------------------
                           !    Initial Parameters    !
                           ! (Angstroms and Degrees)  !
 --------------------------                            --------------------------
 ! Name  Definition              Value          Derivative Info.                !
 --------------------------------------------------------------------------------
 ! R1    R(1,2)                  2.4674         estimate D2E/DX2                !
 ! R2    R(1,30)                 2.4117         estimate D2E/DX2                !
 ! R3    R(1,62)                 2.5042         estimate D2E/DX2                !
 ! R4    R(1,78)                 2.3954         estimate D2E/DX2                !
 ! R5    R(2,63)                 1.6786         estimate D2E/DX2                !
 ! R6    R(2,64)                 1.7028         estimate D2E/DX2                !
 ! R7    R(2,65)                 1.7066         estimate D2E/DX2                !
 ! R8    R(3,4)                  1.0894         estimate D2E/DX2                !
 ! R9    R(3,5)                  1.0985         estimate D2E/DX2                !
 ! R10   R(3,6)                  1.0962         estimate D2E/DX2                !
 ! R11   R(3,65)                 1.4726         estimate D2E/DX2                !
 ! R12   R(7,8)                  1.0968         estimate D2E/DX2                !
 ! R13   R(7,9)                  1.1014         estimate D2E/DX2                !
 ! R14   R(7,10)                 1.09           estimate D2E/DX2                !
 ! R15   R(7,64)                 1.4667         estimate D2E/DX2                !
 ! R16   R(11,12)                1.0892         estimate D2E/DX2                !
 ! R17   R(11,13)                1.0962         estimate D2E/DX2                !
 ! R18   R(11,14)                1.0995         estimate D2E/DX2                !
 ! R19   R(11,63)                1.4668         estimate D2E/DX2                !
 ! R20   R(15,16)                1.4685         estimate D2E/DX2                !
 ! R21   R(15,45)                1.0206         estimate D2E/DX2                !
 ! R22   R(15,46)                1.0189         estimate D2E/DX2                !
 ! R23   R(16,17)                1.5357         estimate D2E/DX2                !
 ! R24   R(16,19)                1.5417         estimate D2E/DX2                !
 ! R25   R(16,44)                1.0933         estimate D2E/DX2                !
 ! R26   R(17,18)                1.2346         estimate D2E/DX2                !
 ! R27   R(17,21)                1.3697         estimate D2E/DX2                !
 ! R28   R(19,20)                1.4162         estimate D2E/DX2                !
 ! R29   R(19,41)                1.0994         estimate D2E/DX2                !
 ! R30   R(19,42)                1.0949         estimate D2E/DX2                !
 ! R31   R(20,43)                0.9749         estimate D2E/DX2                !
 ! R32   R(21,22)                1.4619         estimate D2E/DX2                !
 ! R33   R(21,49)                1.0176         estimate D2E/DX2                !
 ! R34   R(22,23)                1.5388         estimate D2E/DX2                !
 ! R35   R(22,47)                1.0925         estimate D2E/DX2                !
 ! R36   R(22,48)                1.0942         estimate D2E/DX2                !
 ! R37   R(23,24)                1.2357         estimate D2E/DX2                !
 ! R38   R(23,25)                1.3524         estimate D2E/DX2                !
 ! R39   R(25,26)                1.4582         estimate D2E/DX2                !
 ! R40   R(25,53)                1.0178         estimate D2E/DX2                !
 ! R41   R(26,27)                1.5369         estimate D2E/DX2                !
 ! R42   R(26,29)                1.5514         estimate D2E/DX2                !
 ! R43   R(26,52)                1.0958         estimate D2E/DX2                !
 ! R44   R(27,28)                1.2301         estimate D2E/DX2                !
 ! R45   R(27,31)                1.3466         estimate D2E/DX2                !
 ! R46   R(29,30)                1.8456         estimate D2E/DX2                !
 ! R47   R(29,50)                1.0957         estimate D2E/DX2                !
 ! R48   R(29,51)                1.0915         estimate D2E/DX2                !
 ! R49   R(31,32)                1.4427         estimate D2E/DX2                !
 ! R50   R(31,57)                1.0152         estimate D2E/DX2                !
 ! R51   R(32,33)                1.5703         estimate D2E/DX2                !
 ! R52   R(32,34)                1.5305         estimate D2E/DX2                !
 ! R53   R(32,56)                1.0928         estimate D2E/DX2                !
 ! R54   R(33,54)                1.0932         estimate D2E/DX2                !
 ! R55   R(33,55)                1.0924         estimate D2E/DX2                !
 ! R56   R(33,62)                1.9838         estimate D2E/DX2                !
 ! R57   R(34,35)                1.2343         estimate D2E/DX2                !
 ! R58   R(34,36)                1.3512         estimate D2E/DX2                !
 ! R59   R(36,37)                1.452          estimate D2E/DX2                !
 ! R60   R(36,60)                1.0161         estimate D2E/DX2                !
 ! R61   R(37,38)                1.5165         estimate D2E/DX2                !
 ! R62   R(37,58)                1.0985         estimate D2E/DX2                !
 ! R63   R(37,59)                1.0986         estimate D2E/DX2                !
 ! R64   R(38,39)                1.2108         estimate D2E/DX2                !
 ! R65   R(38,40)                1.3453         estimate D2E/DX2                !
 ! R66   R(40,61)                0.9761         estimate D2E/DX2                !
 ! R67   R(63,66)                1.4639         estimate D2E/DX2                !
 ! R68   R(64,74)                1.4705         estimate D2E/DX2                !
 ! R69   R(65,70)                1.4732         estimate D2E/DX2                !
 ! R70   R(66,67)                1.1            estimate D2E/DX2                !
 ! R71   R(66,68)                1.0982         estimate D2E/DX2                !
 ! R72   R(66,69)                1.0912         estimate D2E/DX2                !
 ! R73   R(70,71)                1.1002         estimate D2E/DX2                !
 ! R74   R(70,72)                1.09           estimate D2E/DX2                !
 ! R75   R(70,73)                1.096          estimate D2E/DX2                !
 ! R76   R(74,75)                1.1011         estimate D2E/DX2                !
 ! R77   R(74,76)                1.0955         estimate D2E/DX2                !
 ! R78   R(74,77)                1.0917         estimate D2E/DX2                !
 ! A1    A(2,1,30)              87.97           estimate D2E/DX2                !
 ! A2    A(2,1,78)              88.6715         estimate D2E/DX2                !
 ! A3    A(30,1,62)             95.0934         estimate D2E/DX2                !
 ! A4    A(62,1,78)             88.0765         estimate D2E/DX2                !
 ! A5    A(1,2,63)             115.3679         estimate D2E/DX2                !
 ! A6    A(1,2,64)             113.5991         estimate D2E/DX2                !
 ! A7    A(1,2,65)             108.7045         estimate D2E/DX2                !
 ! A8    A(63,2,64)            111.5858         estimate D2E/DX2                !
 ! A9    A(63,2,65)            104.1503         estimate D2E/DX2                !
 ! A10   A(64,2,65)            102.0446         estimate D2E/DX2                !
 ! A11   A(4,3,5)              108.0473         estimate D2E/DX2                !
 ! A12   A(4,3,6)              108.9576         estimate D2E/DX2                !
 ! A13   A(4,3,65)             110.8227         estimate D2E/DX2                !
 ! A14   A(5,3,6)              108.8328         estimate D2E/DX2                !
 ! A15   A(5,3,65)             112.1455         estimate D2E/DX2                !
 ! A16   A(6,3,65)             107.9769         estimate D2E/DX2                !
 ! A17   A(8,7,9)              107.9763         estimate D2E/DX2                !
 ! A18   A(8,7,10)             108.8067         estimate D2E/DX2                !
 ! A19   A(8,7,64)             108.813          estimate D2E/DX2                !
 ! A20   A(9,7,10)             108.4828         estimate D2E/DX2                !
 ! A21   A(9,7,64)             111.8183         estimate D2E/DX2                !
 ! A22   A(10,7,64)            110.8585         estimate D2E/DX2                !
 ! A23   A(12,11,13)           108.3995         estimate D2E/DX2                !
 ! A24   A(12,11,14)           108.328          estimate D2E/DX2                !
 ! A25   A(12,11,63)           111.5294         estimate D2E/DX2                !
 ! A26   A(13,11,14)           108.9183         estimate D2E/DX2                !
 ! A27   A(13,11,63)           110.0247         estimate D2E/DX2                !
 ! A28   A(14,11,63)           109.5827         estimate D2E/DX2                !
 ! A29   A(16,15,45)           107.619          estimate D2E/DX2                !
 ! A30   A(16,15,46)           109.9196         estimate D2E/DX2                !
 ! A31   A(45,15,46)           106.1042         estimate D2E/DX2                !
 ! A32   A(15,16,17)           111.0998         estimate D2E/DX2                !
 ! A33   A(15,16,19)           108.2317         estimate D2E/DX2                !
 ! A34   A(15,16,44)           108.628          estimate D2E/DX2                !
 ! A35   A(17,16,19)           109.1669         estimate D2E/DX2                !
 ! A36   A(17,16,44)           111.3437         estimate D2E/DX2                !
 ! A37   A(19,16,44)           108.2782         estimate D2E/DX2                !
 ! A38   A(16,17,18)           119.4947         estimate D2E/DX2                !
 ! A39   A(16,17,21)           120.4496         estimate D2E/DX2                !
 ! A40   A(18,17,21)           119.9492         estimate D2E/DX2                !
 ! A41   A(16,19,20)           113.4516         estimate D2E/DX2                !
 ! A42   A(16,19,41)           107.68           estimate D2E/DX2                !
 ! A43   A(16,19,42)           108.5655         estimate D2E/DX2                !
 ! A44   A(20,19,41)           112.6721         estimate D2E/DX2                !
 ! A45   A(20,19,42)           106.3311         estimate D2E/DX2                !
 ! A46   A(41,19,42)           107.9462         estimate D2E/DX2                !
 ! A47   A(19,20,43)           107.5961         estimate D2E/DX2                !
 ! A48   A(17,21,22)           129.0223         estimate D2E/DX2                !
 ! A49   A(17,21,49)           112.7381         estimate D2E/DX2                !
 ! A50   A(22,21,49)           115.4129         estimate D2E/DX2                !
 ! A51   A(21,22,23)           113.5538         estimate D2E/DX2                !
 ! A52   A(21,22,47)           111.3587         estimate D2E/DX2                !
 ! A53   A(21,22,48)           106.6671         estimate D2E/DX2                !
 ! A54   A(23,22,47)           105.9959         estimate D2E/DX2                !
 ! A55   A(23,22,48)           111.5869         estimate D2E/DX2                !
 ! A56   A(47,22,48)           107.5885         estimate D2E/DX2                !
 ! A57   A(22,23,24)           120.5251         estimate D2E/DX2                !
 ! A58   A(22,23,25)           117.9736         estimate D2E/DX2                !
 ! A59   A(24,23,25)           121.5009         estimate D2E/DX2                !
 ! A60   A(23,25,26)           127.0342         estimate D2E/DX2                !
 ! A61   A(23,25,53)           113.5912         estimate D2E/DX2                !
 ! A62   A(26,25,53)           116.5788         estimate D2E/DX2                !
 ! A63   A(25,26,27)           112.3039         estimate D2E/DX2                !
 ! A64   A(25,26,29)           110.6579         estimate D2E/DX2                !
 ! A65   A(25,26,52)           110.2062         estimate D2E/DX2                !
 ! A66   A(27,26,29)           111.448          estimate D2E/DX2                !
 ! A67   A(27,26,52)           105.2141         estimate D2E/DX2                !
 ! A68   A(29,26,52)           106.7246         estimate D2E/DX2                !
 ! A69   A(26,27,28)           121.21           estimate D2E/DX2                !
 ! A70   A(26,27,31)           114.607          estimate D2E/DX2                !
 ! A71   A(28,27,31)           124.1335         estimate D2E/DX2                !
 ! A72   A(26,29,30)           116.6141         estimate D2E/DX2                !
 ! A73   A(26,29,50)           108.8704         estimate D2E/DX2                !
 ! A74   A(26,29,51)           108.3305         estimate D2E/DX2                !
 ! A75   A(30,29,50)           103.7175         estimate D2E/DX2                !
 ! A76   A(30,29,51)           110.5592         estimate D2E/DX2                !
 ! A77   A(50,29,51)           108.4264         estimate D2E/DX2                !
 ! A78   A(1,30,29)            114.6694         estimate D2E/DX2                !
 ! A79   A(27,31,32)           121.7588         estimate D2E/DX2                !
 ! A80   A(27,31,57)           119.2669         estimate D2E/DX2                !
 ! A81   A(32,31,57)           114.8652         estimate D2E/DX2                !
 ! A82   A(31,32,33)           113.8679         estimate D2E/DX2                !
 ! A83   A(31,32,34)           105.7229         estimate D2E/DX2                !
 ! A84   A(31,32,56)           107.9996         estimate D2E/DX2                !
 ! A85   A(33,32,34)           110.5664         estimate D2E/DX2                !
 ! A86   A(33,32,56)           107.6826         estimate D2E/DX2                !
 ! A87   A(34,32,56)           111.0073         estimate D2E/DX2                !
 ! A88   A(32,33,54)           108.6085         estimate D2E/DX2                !
 ! A89   A(32,33,55)           110.7319         estimate D2E/DX2                !
 ! A90   A(32,33,62)           117.8147         estimate D2E/DX2                !
 ! A91   A(54,33,55)           108.6157         estimate D2E/DX2                !
 ! A92   A(54,33,62)           101.5213         estimate D2E/DX2                !
 ! A93   A(55,33,62)           108.8952         estimate D2E/DX2                !
 ! A94   A(32,34,35)           120.1897         estimate D2E/DX2                !
 ! A95   A(32,34,36)           117.7313         estimate D2E/DX2                !
 ! A96   A(35,34,36)           122.0004         estimate D2E/DX2                !
 ! A97   A(34,36,37)           127.7704         estimate D2E/DX2                !
 ! A98   A(34,36,60)           116.0451         estimate D2E/DX2                !
 ! A99   A(37,36,60)           115.3915         estimate D2E/DX2                !
 ! A100  A(36,37,38)           108.2718         estimate D2E/DX2                !
 ! A101  A(36,37,58)           112.4332         estimate D2E/DX2                !
 ! A102  A(36,37,59)           111.9285         estimate D2E/DX2                !
 ! A103  A(38,37,58)           107.6948         estimate D2E/DX2                !
 ! A104  A(38,37,59)           108.6461         estimate D2E/DX2                !
 ! A105  A(58,37,59)           107.7247         estimate D2E/DX2                !
 ! A106  A(37,38,39)           124.991          estimate D2E/DX2                !
 ! A107  A(37,38,40)           111.1416         estimate D2E/DX2                !
 ! A108  A(39,38,40)           123.8671         estimate D2E/DX2                !
 ! A109  A(38,40,61)           106.6821         estimate D2E/DX2                !
 ! A110  A(1,62,33)            102.1877         estimate D2E/DX2                !
 ! A111  A(2,63,11)            122.6281         estimate D2E/DX2                !
 ! A112  A(2,63,66)            121.3462         estimate D2E/DX2                !
 ! A113  A(11,63,66)           113.7275         estimate D2E/DX2                !
 ! A114  A(2,64,7)             121.8687         estimate D2E/DX2                !
 ! A115  A(2,64,74)            114.9408         estimate D2E/DX2                !
 ! A116  A(7,64,74)            111.6246         estimate D2E/DX2                !
 ! A117  A(2,65,3)             117.4812         estimate D2E/DX2                !
 ! A118  A(2,65,70)            116.036          estimate D2E/DX2                !
 ! A119  A(3,65,70)            110.9153         estimate D2E/DX2                !
 ! A120  A(63,66,67)           111.2085         estimate D2E/DX2                !
 ! A121  A(63,66,68)           109.569          estimate D2E/DX2                !
 ! A122  A(63,66,69)           110.7405         estimate D2E/DX2                !
 ! A123  A(67,66,68)           108.0163         estimate D2E/DX2                !
 ! A124  A(67,66,69)           108.8179         estimate D2E/DX2                !
 ! A125  A(68,66,69)           108.4042         estimate D2E/DX2                !
 ! A126  A(65,70,71)           111.728          estimate D2E/DX2                !
 ! A127  A(65,70,72)           110.9988         estimate D2E/DX2                !
 ! A128  A(65,70,73)           108.4872         estimate D2E/DX2                !
 ! A129  A(71,70,72)           108.0628         estimate D2E/DX2                !
 ! A130  A(71,70,73)           108.4063         estimate D2E/DX2                !
 ! A131  A(72,70,73)           109.0953         estimate D2E/DX2                !
 ! A132  A(64,74,75)           111.318          estimate D2E/DX2                !
 ! A133  A(64,74,76)           109.2827         estimate D2E/DX2                !
 ! A134  A(64,74,77)           111.2289         estimate D2E/DX2                !
 ! A135  A(75,74,76)           108.4954         estimate D2E/DX2                !
 ! A136  A(75,74,77)           108.401          estimate D2E/DX2                !
 ! A137  A(76,74,77)           108.018          estimate D2E/DX2                !
 ! A138  L(2,1,62,78,-1)       176.748          estimate D2E/DX2                !
 ! A139  L(30,1,78,62,-1)      183.1699         estimate D2E/DX2                !
 ! A140  L(2,1,62,78,-2)       185.1841         estimate D2E/DX2                !
 ! A141  L(30,1,78,62,-2)      177.7872         estimate D2E/DX2                !
 ! D1    D(30,1,2,63)          147.8999         estimate D2E/DX2                !
 ! D2    D(30,1,2,64)           17.2487         estimate D2E/DX2                !
 ! D3    D(30,1,2,65)          -95.6017         estimate D2E/DX2                !
 ! D4    D(78,1,2,63)          -34.0098         estimate D2E/DX2                !
 ! D5    D(78,1,2,64)         -164.661          estimate D2E/DX2                !
 ! D6    D(78,1,2,65)           82.4886         estimate D2E/DX2                !
 ! D7    D(63,2,62,33)          44.2037         estimate D2E/DX2                !
 ! D8    D(64,2,62,33)         -88.8802         estimate D2E/DX2                !
 ! D9    D(65,2,62,33)         158.8421         estimate D2E/DX2                !
 ! D10   D(2,1,30,29)          174.5996         estimate D2E/DX2                !
 ! D11   D(62,1,30,29)          -0.0925         estimate D2E/DX2                !
 ! D12   D(30,1,62,33)        -104.9829         estimate D2E/DX2                !
 ! D13   D(78,1,62,33)          77.2299         estimate D2E/DX2                !
 ! D14   D(1,2,63,11)          -33.6185         estimate D2E/DX2                !
 ! D15   D(1,2,63,66)          164.6842         estimate D2E/DX2                !
 ! D16   D(64,2,63,11)          97.9921         estimate D2E/DX2                !
 ! D17   D(64,2,63,66)         -63.7052         estimate D2E/DX2                !
 ! D18   D(65,2,63,11)        -152.6674         estimate D2E/DX2                !
 ! D19   D(65,2,63,66)          45.6353         estimate D2E/DX2                !
 ! D20   D(1,2,64,7)          -156.5125         estimate D2E/DX2                !
 ! D21   D(1,2,64,74)           63.3416         estimate D2E/DX2                !
 ! D22   D(63,2,64,7)           70.984          estimate D2E/DX2                !
 ! D23   D(63,2,64,74)         -69.1619         estimate D2E/DX2                !
 ! D24   D(65,2,64,7)          -39.7017         estimate D2E/DX2                !
 ! D25   D(65,2,64,74)        -179.8475         estimate D2E/DX2                !
 ! D26   D(1,2,65,3)           -72.8808         estimate D2E/DX2                !
 ! D27   D(1,2,65,70)           61.7018         estimate D2E/DX2                !
 ! D28   D(63,2,65,3)           50.6119         estimate D2E/DX2                !
 ! D29   D(63,2,65,70)        -174.8054         estimate D2E/DX2                !
 ! D30   D(64,2,65,3)          166.8269         estimate D2E/DX2                !
 ! D31   D(64,2,65,70)         -58.5904         estimate D2E/DX2                !
 ! D32   D(4,3,65,2)           -44.0786         estimate D2E/DX2                !
 ! D33   D(4,3,65,70)          179.1649         estimate D2E/DX2                !
 ! D34   D(5,3,65,2)            76.7607         estimate D2E/DX2                !
 ! D35   D(5,3,65,70)          -59.9958         estimate D2E/DX2                !
 ! D36   D(6,3,65,2)          -163.3412         estimate D2E/DX2                !
 ! D37   D(6,3,65,70)           59.9024         estimate D2E/DX2                !
 ! D38   D(8,7,64,2)           154.8802         estimate D2E/DX2                !
 ! D39   D(8,7,64,74)          -63.8069         estimate D2E/DX2                !
 ! D40   D(9,7,64,2)           -85.9376         estimate D2E/DX2                !
 ! D41   D(9,7,64,74)           55.3753         estimate D2E/DX2                !
 ! D42   D(10,7,64,2)           35.2589         estimate D2E/DX2                !
 ! D43   D(10,7,64,74)         176.5718         estimate D2E/DX2                !
 ! D44   D(12,11,63,2)           6.3782         estimate D2E/DX2                !
 ! D45   D(12,11,63,66)        169.3427         estimate D2E/DX2                !
 ! D46   D(13,11,63,2)         126.7048         estimate D2E/DX2                !
 ! D47   D(13,11,63,66)        -70.3307         estimate D2E/DX2                !
 ! D48   D(14,11,63,2)        -113.5647         estimate D2E/DX2                !
 ! D49   D(14,11,63,66)         49.3998         estimate D2E/DX2                !
 ! D50   D(45,15,16,17)         40.5996         estimate D2E/DX2                !
 ! D51   D(45,15,16,19)        -79.2429         estimate D2E/DX2                !
 ! D52   D(45,15,16,44)        163.4024         estimate D2E/DX2                !
 ! D53   D(46,15,16,17)        -74.5286         estimate D2E/DX2                !
 ! D54   D(46,15,16,19)        165.6289         estimate D2E/DX2                !
 ! D55   D(46,15,16,44)         48.2743         estimate D2E/DX2                !
 ! D56   D(15,16,17,18)        -53.5588         estimate D2E/DX2                !
 ! D57   D(15,16,17,21)        122.688          estimate D2E/DX2                !
 ! D58   D(19,16,17,18)         65.7257         estimate D2E/DX2                !
 ! D59   D(19,16,17,21)       -118.0275         estimate D2E/DX2                !
 ! D60   D(44,16,17,18)       -174.7817         estimate D2E/DX2                !
 ! D61   D(44,16,17,21)          1.4651         estimate D2E/DX2                !
 ! D62   D(15,16,19,20)        178.0293         estimate D2E/DX2                !
 ! D63   D(15,16,19,41)        -56.5713         estimate D2E/DX2                !
 ! D64   D(15,16,19,42)         60.0577         estimate D2E/DX2                !
 ! D65   D(17,16,19,20)         56.9812         estimate D2E/DX2                !
 ! D66   D(17,16,19,41)       -177.6194         estimate D2E/DX2                !
 ! D67   D(17,16,19,42)        -60.9904         estimate D2E/DX2                !
 ! D68   D(44,16,19,20)        -64.3915         estimate D2E/DX2                !
 ! D69   D(44,16,19,41)         61.0079         estimate D2E/DX2                !
 ! D70   D(44,16,19,42)        177.6369         estimate D2E/DX2                !
 ! D71   D(16,17,21,22)         14.7165         estimate D2E/DX2                !
 ! D72   D(16,17,21,49)        174.5279         estimate D2E/DX2                !
 ! D73   D(18,17,21,22)       -169.0538         estimate D2E/DX2                !
 ! D74   D(18,17,21,49)         -9.2424         estimate D2E/DX2                !
 ! D75   D(16,19,20,43)         58.6681         estimate D2E/DX2                !
 ! D76   D(41,19,20,43)        -64.0147         estimate D2E/DX2                !
 ! D77   D(42,19,20,43)        177.9272         estimate D2E/DX2                !
 ! D78   D(17,21,22,23)         62.2996         estimate D2E/DX2                !
 ! D79   D(17,21,22,47)        -57.2554         estimate D2E/DX2                !
 ! D80   D(17,21,22,48)       -174.3701         estimate D2E/DX2                !
 ! D81   D(49,21,22,23)        -97.067          estimate D2E/DX2                !
 ! D82   D(49,21,22,47)        143.378          estimate D2E/DX2                !
 ! D83   D(49,21,22,48)         26.2633         estimate D2E/DX2                !
 ! D84   D(21,22,23,24)        -97.3639         estimate D2E/DX2                !
 ! D85   D(21,22,23,25)         82.8428         estimate D2E/DX2                !
 ! D86   D(47,22,23,24)         25.2025         estimate D2E/DX2                !
 ! D87   D(47,22,23,25)       -154.5909         estimate D2E/DX2                !
 ! D88   D(48,22,23,24)        142.0415         estimate D2E/DX2                !
 ! D89   D(48,22,23,25)        -37.7518         estimate D2E/DX2                !
 ! D90   D(22,23,25,26)        -11.2015         estimate D2E/DX2                !
 ! D91   D(22,23,25,53)       -171.4389         estimate D2E/DX2                !
 ! D92   D(24,23,25,26)        169.0072         estimate D2E/DX2                !
 ! D93   D(24,23,25,53)          8.7699         estimate D2E/DX2                !
 ! D94   D(23,25,26,27)        -54.2572         estimate D2E/DX2                !
 ! D95   D(23,25,26,29)       -179.5            estimate D2E/DX2                !
 ! D96   D(23,25,26,52)         62.6938         estimate D2E/DX2                !
 ! D97   D(53,25,26,27)        105.4706         estimate D2E/DX2                !
 ! D98   D(53,25,26,29)        -19.7723         estimate D2E/DX2                !
 ! D99   D(53,25,26,52)       -137.5784         estimate D2E/DX2                !
 ! D100  D(25,26,27,28)        126.8633         estimate D2E/DX2                !
 ! D101  D(25,26,27,31)        -50.6822         estimate D2E/DX2                !
 ! D102  D(29,26,27,28)       -108.3278         estimate D2E/DX2                !
 ! D103  D(29,26,27,31)         74.1267         estimate D2E/DX2                !
 ! D104  D(52,26,27,28)          6.9657         estimate D2E/DX2                !
 ! D105  D(52,26,27,31)       -170.5798         estimate D2E/DX2                !
 ! D106  D(25,26,29,30)         46.143          estimate D2E/DX2                !
 ! D107  D(25,26,29,50)        -70.7015         estimate D2E/DX2                !
 ! D108  D(25,26,29,51)        171.5794         estimate D2E/DX2                !
 ! D109  D(27,26,29,30)        -79.582          estimate D2E/DX2                !
 ! D110  D(27,26,29,50)        163.5736         estimate D2E/DX2                !
 ! D111  D(27,26,29,51)         45.8545         estimate D2E/DX2                !
 ! D112  D(52,26,29,30)        166.059          estimate D2E/DX2                !
 ! D113  D(52,26,29,50)         49.2145         estimate D2E/DX2                !
 ! D114  D(52,26,29,51)        -68.5046         estimate D2E/DX2                !
 ! D115  D(26,27,31,32)       -165.9168         estimate D2E/DX2                !
 ! D116  D(26,27,31,57)         -9.8802         estimate D2E/DX2                !
 ! D117  D(28,27,31,32)         16.6195         estimate D2E/DX2                !
 ! D118  D(28,27,31,57)        172.656          estimate D2E/DX2                !
 ! D119  D(26,29,30,1)          93.8443         estimate D2E/DX2                !
 ! D120  D(50,29,30,1)        -146.5063         estimate D2E/DX2                !
 ! D121  D(51,29,30,1)         -30.463          estimate D2E/DX2                !
 ! D122  D(27,31,32,33)         61.5049         estimate D2E/DX2                !
 ! D123  D(27,31,32,34)       -176.9185         estimate D2E/DX2                !
 ! D124  D(27,31,32,56)        -58.0334         estimate D2E/DX2                !
 ! D125  D(57,31,32,33)        -95.509          estimate D2E/DX2                !
 ! D126  D(57,31,32,34)         26.0677         estimate D2E/DX2                !
 ! D127  D(57,31,32,56)        144.9528         estimate D2E/DX2                !
 ! D128  D(31,32,33,54)        -95.4222         estimate D2E/DX2                !
 ! D129  D(31,32,33,55)        145.3954         estimate D2E/DX2                !
 ! D130  D(31,32,33,62)         19.1547         estimate D2E/DX2                !
 ! D131  D(34,32,33,54)        145.7281         estimate D2E/DX2                !
 ! D132  D(34,32,33,55)         26.5456         estimate D2E/DX2                !
 ! D133  D(34,32,33,62)        -99.695          estimate D2E/DX2                !
 ! D134  D(56,32,33,54)         24.2955         estimate D2E/DX2                !
 ! D135  D(56,32,33,55)        -94.887          estimate D2E/DX2                !
 ! D136  D(56,32,33,62)        138.8723         estimate D2E/DX2                !
 ! D137  D(31,32,34,35)        -42.0247         estimate D2E/DX2                !
 ! D138  D(31,32,34,36)        141.1362         estimate D2E/DX2                !
 ! D139  D(33,32,34,35)         81.6583         estimate D2E/DX2                !
 ! D140  D(33,32,34,36)        -95.1807         estimate D2E/DX2                !
 ! D141  D(56,32,34,35)       -158.8957         estimate D2E/DX2                !
 ! D142  D(56,32,34,36)         24.2652         estimate D2E/DX2                !
 ! D143  D(32,33,62,1)          53.7167         estimate D2E/DX2                !
 ! D144  D(54,33,62,1)         172.1244         estimate D2E/DX2                !
 ! D145  D(55,33,62,1)         -73.4123         estimate D2E/DX2                !
 ! D146  D(32,34,36,37)        -14.0511         estimate D2E/DX2                !
 ! D147  D(32,34,36,60)        176.6983         estimate D2E/DX2                !
 ! D148  D(35,34,36,37)        169.1708         estimate D2E/DX2                !
 ! D149  D(35,34,36,60)         -0.0799         estimate D2E/DX2                !
 ! D150  D(34,36,37,38)       -168.7693         estimate D2E/DX2                !
 ! D151  D(34,36,37,58)         72.3752         estimate D2E/DX2                !
 ! D152  D(34,36,37,59)        -49.0417         estimate D2E/DX2                !
 ! D153  D(60,36,37,38)          0.5409         estimate D2E/DX2                !
 ! D154  D(60,36,37,58)       -118.3146         estimate D2E/DX2                !
 ! D155  D(60,36,37,59)        120.2686         estimate D2E/DX2                !
 ! D156  D(36,37,38,39)          0.2922         estimate D2E/DX2                !
 ! D157  D(36,37,38,40)       -179.5105         estimate D2E/DX2                !
 ! D158  D(58,37,38,39)        122.1063         estimate D2E/DX2                !
 ! D159  D(58,37,38,40)        -57.6965         estimate D2E/DX2                !
 ! D160  D(59,37,38,39)       -121.4755         estimate D2E/DX2                !
 ! D161  D(59,37,38,40)         58.7218         estimate D2E/DX2                !
 ! D162  D(37,38,40,61)       -179.314          estimate D2E/DX2                !
 ! D163  D(39,38,40,61)          0.8806         estimate D2E/DX2                !
 ! D164  D(2,63,66,67)         103.4939         estimate D2E/DX2                !
 ! D165  D(2,63,66,68)        -137.1632         estimate D2E/DX2                !
 ! D166  D(2,63,66,69)         -17.6317         estimate D2E/DX2                !
 ! D167  D(11,63,66,67)        -59.714          estimate D2E/DX2                !
 ! D168  D(11,63,66,68)         59.6289         estimate D2E/DX2                !
 ! D169  D(11,63,66,69)        179.1604         estimate D2E/DX2                !
 ! D170  D(2,64,74,75)          88.4594         estimate D2E/DX2                !
 ! D171  D(2,64,74,76)        -151.7193         estimate D2E/DX2                !
 ! D172  D(2,64,74,77)         -32.5456         estimate D2E/DX2                !
 ! D173  D(7,64,74,75)         -55.7066         estimate D2E/DX2                !
 ! D174  D(7,64,74,76)          64.1148         estimate D2E/DX2                !
 ! D175  D(7,64,74,77)        -176.7115         estimate D2E/DX2                !
 ! D176  D(2,65,70,71)         -79.1281         estimate D2E/DX2                !
 ! D177  D(2,65,70,72)          41.5679         estimate D2E/DX2                !
 ! D178  D(2,65,70,73)         161.4234         estimate D2E/DX2                !
 ! D179  D(3,65,70,71)          58.3056         estimate D2E/DX2                !
 ! D180  D(3,65,70,72)         179.0016         estimate D2E/DX2                !
 ! D181  D(3,65,70,73)         -61.1429         estimate D2E/DX2                !
 --------------------------------------------------------------------------------
 Trust Radius=3.00D-01 FncErr=1.00D-07 GrdErr=1.00D-06
 Number of steps in this run=    410 maximum allowed number of steps=    468.
 GradGradGradGradGradGradGradGradGradGradGradGradGradGradGradGradGradGrad

 Stoichiometry    C19H39AuClN8O7PSSe
 Framework group  C1[X(C19H39AuClN8O7PSSe)]
 Deg. of freedom   228
 Full point group                 C1      NOp   1
 Largest Abelian subgroup         C1      NOp   1
 Largest concise Abelian subgroup C1      NOp   1
                         Standard orientation:                         
 ---------------------------------------------------------------------
 Center     Atomic      Atomic             Coordinates (Angstroms)
 Number     Number       Type             X           Y           Z
 ---------------------------------------------------------------------
      1         79           0       -1.897503    0.046044   -0.747781
      2         15           0       -3.359530    0.115968    1.238619
      3          6           0       -5.705319    0.697201   -0.010324
      4          1           0       -5.586312    1.692821    0.415471
      5          1           0       -5.385238    0.735688   -1.060464
      6          1           0       -6.764782    0.418371    0.026683
      7          6           0       -4.006345   -1.556228    3.353638
      8          1           0       -3.749282   -2.576324    3.664124
      9          1           0       -4.032536   -0.923108    4.254555
     10          1           0       -5.001115   -1.564667    2.908191
     11          6           0       -2.439561    2.609329    1.987569
     12          1           0       -1.583517    2.279106    1.400604
     13          1           0       -2.788760    3.566061    1.582112
     14          1           0       -2.109373    2.761169    3.025307
     15          7           0        6.625731   -0.462017    1.940845
     16          6           0        5.265933   -0.974748    1.729690
     17          6           0        4.828751   -0.796866    0.268337
     18          8           0        4.895825    0.319540   -0.254624
     19          6           0        4.306298   -0.187917    2.644469
     20          8           0        2.949502   -0.565825    2.496084
     21          7           0        4.439933   -1.878573   -0.476432
     22          6           0        4.085476   -3.224463   -0.029274
     23          6           0        2.853989   -3.261738    0.892610
     24          8           0        2.989877   -3.297900    2.120332
     25          7           0        1.630263   -3.257895    0.316911
     26          6           0        1.319321   -2.996325   -1.083522
     27          6           0        1.896388   -1.657060   -1.568859
     28          8           0        2.602862   -1.594196   -2.573846
     29          6           0       -0.210409   -3.077090   -1.328835
     30         16           0       -1.289786   -2.200468   -0.115294
     31          7           0        1.606427   -0.603506   -0.781981
     32          6           0        1.803312    0.754281   -1.227954
     33          6           0        0.946049    1.140606   -2.485656
     34          6           0        1.436822    1.639993   -0.034785
     35          8           0        0.445208    1.377398    0.651757
     36          7           0        2.192582    2.737440    0.189205
     37          6           0        3.487752    3.057450   -0.383848
     38          6           0        4.061757    4.241558    0.369983
     39          8           0        3.518962    4.806038    1.293463
     40          8           0        5.262530    4.594862   -0.123163
     41          1           0        4.665873   -0.296450    3.677755
     42          1           0        4.361461    0.872576    2.377695
     43          1           0        2.884919   -1.517550    2.697477
     44          1           0        5.238956   -2.026263    2.027934
     45          1           0        6.713569    0.407148    1.413127
     46          1           0        7.305770   -1.106118    1.539793
     47          1           0        4.899545   -3.682873    0.537119
     48          1           0        3.931438   -3.824429   -0.931245
     49          1           0        4.091097   -1.617953   -1.396203
     50          1           0       -0.527193   -4.123041   -1.250190
     51          1           0       -0.414134   -2.730266   -2.343516
     52          1           0        1.781758   -3.757133   -1.722413
     53          1           0        0.867763   -3.144632    0.981557
     54          1           0        1.558260    1.002912   -3.380781
     55          1           0        0.633549    2.186103   -2.434343
     56          1           0        2.856346    0.872689   -1.494908
     57          1           0        0.926804   -0.713455   -0.035889
     58          1           0        3.419472    3.337730   -1.443842
     59          1           0        4.190442    2.216622   -0.304801
     60          1           0        1.895657    3.334790    0.955683
     61          1           0        5.574354    5.349234    0.412132
     62         34           0       -0.633647    0.017991   -2.909501
     63          7           0       -3.525812    1.624187    1.956448
     64          7           0       -3.005766   -1.089368    2.388186
     65          7           0       -4.946079   -0.298010    0.765287
     66          6           0       -4.595307    1.896000    2.918424
     67          1           0       -4.210624    1.905797    3.948914
     68          1           0       -5.035371    2.880532    2.710766
     69          1           0       -5.382569    1.144053    2.843728
     70          6           0       -5.121555   -1.648294    0.202953
     71          1           0       -4.801289   -1.696395   -0.848553
     72          1           0       -4.546088   -2.383528    0.765507
     73          1           0       -6.184644   -1.910277    0.253268
     74          6           0       -1.669865   -0.994126    2.995459
     75          1           0       -1.680896   -0.349319    3.887931
     76          1           0       -1.335720   -1.994025    3.293250
     77          1           0       -0.942041   -0.591519    2.288421
     78         17           0       -2.644665    2.252364   -1.306384
 ---------------------------------------------------------------------
 Rotational constants (GHZ):      0.0959366      0.0491790      0.0459711
 General basis read from cards:  (5D, 7F)
 ======================================================================================================
                                       Pseudopotential Parameters
 ======================================================================================================
  Center     Atomic      Valence      Angular      Power
  Number     Number     Electrons     Momentum     of R      Exponent        Coefficient   SO-Coeffient
 ======================================================================================================
    1         79           19
                                      G and up 
                                                     1      622.6287956      -60.00000000    0.00000000
                                                     2      136.2843607     -555.52923120    0.00000000
                                                     2       33.1549781     -168.00197850    0.00000000
                                                     2        9.9894895      -63.03998750    0.00000000
                                                     2        3.0481312       -4.25166810    0.00000000
                                      S - G
                                                     0      194.7374304        3.00000000    0.00000000
                                                     1      351.5327447       38.60208800    0.00000000
                                                     2      122.3270402      864.83707270    0.00000000
                                                     2       32.0914617      374.99355200    0.00000000
                                                     2        5.2451812      289.79101000    0.00000000
                                                     2        4.4916223     -152.45327730    0.00000000
                                      P - G
                                                     0      420.6158801        2.00000000    0.00000000
                                                     1      109.4417815       73.88856250    0.00000000
                                                     2       34.1714280      326.67298720    0.00000000
                                                     2        5.9879750      126.58145910    0.00000000
                                      D - G
                                                     0      219.2666158        3.00000000    0.00000000
                                                     1      122.7297786       55.67931490    0.00000000
                                                     2       63.1063369      449.19873350    0.00000000
                                                     2       18.3684520      215.02690910    0.00000000
                                                     2        4.4972844       64.08409950    0.00000000
                                      F - G
                                                     0      108.5506037        4.00000000    0.00000000
                                                     1       56.4795527       51.80653350    0.00000000
                                                     2       29.2069159      231.21831130    0.00000000
                                                     2        9.5440543      119.00473860    0.00000000
                                                     2        2.8965118       15.34241880    0.00000000
    2         15
                                   No pseudopotential on this center.
    3          6
                                   No pseudopotential on this center.
    4          1
                                   No pseudopotential on this center.
    5          1
                                   No pseudopotential on this center.
    6          1
                                   No pseudopotential on this center.
    7          6
                                   No pseudopotential on this center.
    8          1
                                   No pseudopotential on this center.
    9          1
                                   No pseudopotential on this center.
   10          1
                                   No pseudopotential on this center.
   11          6
                                   No pseudopotential on this center.
   12          1
                                   No pseudopotential on this center.
   13          1
                                   No pseudopotential on this center.
   14          1
                                   No pseudopotential on this center.
   15          7
                                   No pseudopotential on this center.
   16          6
                                   No pseudopotential on this center.
   17          6
                                   No pseudopotential on this center.
   18          8
                                   No pseudopotential on this center.
   19          6
                                   No pseudopotential on this center.
   20          8
                                   No pseudopotential on this center.
   21          7
                                   No pseudopotential on this center.
   22          6
                                   No pseudopotential on this center.
   23          6
                                   No pseudopotential on this center.
   24          8
                                   No pseudopotential on this center.
   25          7
                                   No pseudopotential on this center.
   26          6
                                   No pseudopotential on this center.
   27          6
                                   No pseudopotential on this center.
   28          8
                                   No pseudopotential on this center.
   29          6
                                   No pseudopotential on this center.
   30         16
                                   No pseudopotential on this center.
   31          7
                                   No pseudopotential on this center.
   32          6
                                   No pseudopotential on this center.
   33          6
                                   No pseudopotential on this center.
   34          6
                                   No pseudopotential on this center.
   35          8
                                   No pseudopotential on this center.
   36          7
                                   No pseudopotential on this center.
   37          6
                                   No pseudopotential on this center.
   38          6
                                   No pseudopotential on this center.
   39          8
                                   No pseudopotential on this center.
   40          8
                                   No pseudopotential on this center.
   41          1
                                   No pseudopotential on this center.
   42          1
                                   No pseudopotential on this center.
   43          1
                                   No pseudopotential on this center.
   44          1
                                   No pseudopotential on this center.
   45          1
                                   No pseudopotential on this center.
   46          1
                                   No pseudopotential on this center.
   47          1
                                   No pseudopotential on this center.
   48          1
                                   No pseudopotential on this center.
   49          1
                                   No pseudopotential on this center.
   50          1
                                   No pseudopotential on this center.
   51          1
                                   No pseudopotential on this center.
   52          1
                                   No pseudopotential on this center.
   53          1
                                   No pseudopotential on this center.
   54          1
                                   No pseudopotential on this center.
   55          1
                                   No pseudopotential on this center.
   56          1
                                   No pseudopotential on this center.
   57          1
                                   No pseudopotential on this center.
   58          1
                                   No pseudopotential on this center.
   59          1
                                   No pseudopotential on this center.
   60          1
                                   No pseudopotential on this center.
   61          1
                                   No pseudopotential on this center.
   62         34
                                   No pseudopotential on this center.
   63          7
                                   No pseudopotential on this center.
   64          7
                                   No pseudopotential on this center.
   65          7
                                   No pseudopotential on this center.
   66          6
                                   No pseudopotential on this center.
   67          1
                                   No pseudopotential on this center.
   68          1
                                   No pseudopotential on this center.
   69          1
                                   No pseudopotential on this center.
   70          6
                                   No pseudopotential on this center.
   71          1
                                   No pseudopotential on this center.
   72          1
                                   No pseudopotential on this center.
   73          1
                                   No pseudopotential on this center.
   74          6
                                   No pseudopotential on this center.
   75          1
                                   No pseudopotential on this center.
   76          1
                                   No pseudopotential on this center.
   77          1
                                   No pseudopotential on this center.
   78         17
                                   No pseudopotential on this center.
 ======================================================================================================
 There are   723 symmetry adapted cartesian basis functions of A   symmetry.
 There are   678 symmetry adapted basis functions of A   symmetry.
   678 basis functions,  1395 primitive gaussians,   723 cartesian basis functions
   183 alpha electrons      183 beta electrons
       nuclear repulsion energy      7477.4125425246 Hartrees.
 NAtoms=   78 NActive=   78 NUniq=   78 SFac= 1.00D+00 NAtFMM=   60 NAOKFM=T Big=T
 Integral buffers will be    131072 words long.
 Raffenetti 2 integral format.
 Two-electron integral symmetry is turned on.
 One-electron integrals computed using PRISM.
   1 Symmetry operations used in ECPInt.
 ECPInt:  NShTT=   32640 NPrTT=  197136 LenC2=   25523 LenP2D=   79631.
 LDataN:  DoStor=T MaxTD1= 7 Len=  274
 NBasis=   678 RedAO= T EigKep=  1.68D-03  NBF=   678
 NBsUse=   678 1.00D-06 EigRej= -1.00D+00 NBFU=   678
 Defaulting to unpruned grid for atomic number  79.
 ExpMin= 2.79D-02 ExpMax= 5.61D+05 ExpMxC= 5.42D+03 IAcc=3 IRadAn=         5 AccDes= 0.00D+00
 Harris functional with IExCor=  402 and IRadAn=       5 diagonalized for initial guess.
 HarFok:  IExCor=  402 AccDes= 0.00D+00 IRadAn=         5 IDoV= 1 UseB2=F ITyADJ=14
 ICtDFT=  3500011 ScaDFX=  1.000000  1.000000  1.000000  1.000000
 Defaulting to unpruned grid for atomic number  79.
 Defaulting to unpruned grid for atomic number  79.
 Defaulting to unpruned grid for atomic number  79.
 Defaulting to unpruned grid for atomic number  79.
 Defaulting to unpruned grid for atomic number  79.
 Defaulting to unpruned grid for atomic number  79.
 Defaulting to unpruned grid for atomic number  79.
 Defaulting to unpruned grid for atomic number  79.
 FoFCou: FMM=F IPFlag=           0 FMFlag=      100000 FMFlg1=        2001
         NFxFlg=           0 DoJE=T BraDBF=F KetDBF=T FulRan=T
         wScrn=  0.000000 ICntrl=     500 IOpCl=  0 I1Cent=   200000004 NGrid=           0
         NMat0=    1 NMatS0=      1 NMatT0=    0 NMatD0=    1 NMtDS0=    0 NMtDT0=    0
 Petite list used in FoFCou.
 Requested convergence on RMS density matrix=1.00D-08 within 128 cycles.
 Requested convergence on MAX density matrix=1.00D-06.
 Requested convergence on             energy=1.00D-06.
 No special actions if energy rises.
 Defaulting to unpruned grid for atomic number  79.
 Defaulting to unpruned grid for atomic number  79.
 Defaulting to unpruned grid for atomic number  79.
 Defaulting to unpruned grid for atomic number  79.
 Defaulting to unpruned grid for atomic number  79.
 Defaulting to unpruned grid for atomic number  79.
 Defaulting to unpruned grid for atomic number  79.
 Defaulting to unpruned grid for atomic number  79.
 EnCoef did     5 forward-backward iterations
 EnCoef did   100 forward-backward iterations
 SCF Done:  E(RB3LYP) =  -5446.29776772     A.U. after   18 cycles
            NFock= 18  Conv=0.50D-08     -V/T= 2.0182

 **********************************************************************

            Population analysis using the SCF density.

 **********************************************************************

 Orbital symmetries:
       Occupied  (A) (A) (A) (A) (A) (A) (A) (A) (A) (A) (A) (A)
                 (A) (A) (A) (A) (A) (A) (A) (A) (A) (A) (A) (A)
                 (A) (A) (A) (A) (A) (A) (A) (A) (A) (A) (A) (A)
                 (A) (A) (A) (A) (A) (A) (A) (A) (A) (A) (A) (A)
                 (A) (A) (A) (A) (A) (A) (A) (A) (A) (A) (A) (A)
                 (A) (A) (A) (A) (A) (A) (A) (A) (A) (A) (A) (A)
                 (A) (A) (A) (A) (A) (A) (A) (A) (A) (A) (A) (A)
                 (A) (A) (A) (A) (A) (A) (A) (A) (A) (A) (A) (A)
                 (A) (A) (A) (A) (A) (A) (A) (A) (A) (A) (A) (A)
                 (A) (A) (A) (A) (A) (A) (A) (A) (A) (A) (A) (A)
                 (A) (A) (A) (A) (A) (A) (A) (A) (A) (A) (A) (A)
                 (A) (A) (A) (A) (A) (A) (A) (A) (A) (A) (A) (A)
                 (A) (A) (A) (A) (A) (A) (A) (A) (A) (A) (A) (A)
                 (A) (A) (A) (A) (A) (A) (A) (A) (A) (A) (A) (A)
                 (A) (A) (A) (A) (A) (A) (A) (A) (A) (A) (A) (A)
                 (A) (A) (A)
       Virtual   (A) (A) (A) (A) (A) (A) (A) (A) (A) (A) (A) (A)
                 (A) (A) (A) (A) (A) (A) (A) (A) (A) (A) (A) (A)
                 (A) (A) (A) (A) (A) (A) (A) (A) (A) (A) (A) (A)
                 (A) (A) (A) (A) (A) (A) (A) (A) (A) (A) (A) (A)
                 (A) (A) (A) (A) (A) (A) (A) (A) (A) (A) (A) (A)
                 (A) (A) (A) (A) (A) (A) (A) (A) (A) (A) (A) (A)
                 (A) (A) (A) (A) (A) (A) (A) (A) (A) (A) (A) (A)
                 (A) (A) (A) (A) (A) (A) (A) (A) (A) (A) (A) (A)
                 (A) (A) (A) (A) (A) (A) (A) (A) (A) (A) (A) (A)
                 (A) (A) (A) (A) (A) (A) (A) (A) (A) (A) (A) (A)
                 (A) (A) (A) (A) (A) (A) (A) (A) (A) (A) (A) (A)
                 (A) (A) (A) (A) (A) (A) (A) (A) (A) (A) (A) (A)
                 (A) (A) (A) (A) (A) (A) (A) (A) (A) (A) (A) (A)
                 (A) (A) (A) (A) (A) (A) (A) (A) (A) (A) (A) (A)
                 (A) (A) (A) (A) (A) (A) (A) (A) (A) (A) (A) (A)
                 (A) (A) (A) (A) (A) (A) (A) (A) (A) (A) (A) (A)
                 (A) (A) (A) (A) (A) (A) (A) (A) (A) (A) (A) (A)
                 (A) (A) (A) (A) (A) (A) (A) (A) (A) (A) (A) (A)
                 (A) (A) (A) (A) (A) (A) (A) (A) (A) (A) (A) (A)
                 (A) (A) (A) (A) (A) (A) (A) (A) (A) (A) (A) (A)
                 (A) (A) (A) (A) (A) (A) (A) (A) (A) (A) (A) (A)
                 (A) (A) (A) (A) (A) (A) (A) (A) (A) (A) (A) (A)
                 (A) (A) (A) (A) (A) (A) (A) (A) (A) (A) (A) (A)
                 (A) (A) (A) (A) (A) (A) (A) (A) (A) (A) (A) (A)
                 (A) (A) (A) (A) (A) (A) (A) (A) (A) (A) (A) (A)
                 (A) (A) (A) (A) (A) (A) (A) (A) (A) (A) (A) (A)
                 (A) (A) (A) (A) (A) (A) (A) (A) (A) (A) (A) (A)
                 (A) (A) (A) (A) (A) (A) (A) (A) (A) (A) (A) (A)
                 (A) (A) (A) (A) (A) (A) (A) (A) (A) (A) (A) (A)
                 (A) (A) (A) (A) (A) (A) (A) (A) (A) (A) (A) (A)
                 (A) (A) (A) (A) (A) (A) (A) (A) (A) (A) (A) (A)
                 (A) (A) (A) (A) (A) (A) (A) (A) (A) (A) (A) (A)
                 (A) (A) (A) (A) (A) (A) (A) (A) (A) (A) (A) (A)
                 (A) (A) (A) (A) (A) (A) (A) (A) (A) (A) (A) (A)
                 (A) (A) (A) (A) (A) (A) (A) (A) (A) (A) (A) (A)
                 (A) (A) (A) (A) (A) (A) (A) (A) (A) (A) (A) (A)
                 (A) (A) (A) (A) (A) (A) (A) (A) (A) (A) (A) (A)
                 (A) (A) (A) (A) (A) (A) (A) (A) (A) (A) (A) (A)
                 (A) (A) (A) (A) (A) (A) (A) (A) (A) (A) (A) (A)
                 (A) (A) (A) (A) (A) (A) (A) (A) (A) (A) (A) (A)
                 (A) (A) (A) (A) (A) (A) (A) (A) (A) (A) (A) (A)
                 (A) (A) (A)
 The electronic state is 1-A.
 Alpha  occ. eigenvalues -- -453.53806-101.46857 -88.85653 -77.18159 -57.25741
 Alpha  occ. eigenvalues --  -52.03306 -52.03219 -52.02927 -19.20781 -19.15566
 Alpha  occ. eigenvalues --  -19.12840 -19.12193 -19.11994 -19.11600 -19.11595
 Alpha  occ. eigenvalues --  -14.37081 -14.36232 -14.35861 -14.35385 -14.35296
 Alpha  occ. eigenvalues --  -14.35083 -14.35063 -14.30804 -10.33659 -10.30206
 Alpha  occ. eigenvalues --  -10.29339 -10.28895 -10.28353 -10.24616 -10.23887
 Alpha  occ. eigenvalues --  -10.23486 -10.23206 -10.22105 -10.22018 -10.21924
 Alpha  occ. eigenvalues --  -10.21652 -10.21248 -10.21055 -10.20955 -10.20761
 Alpha  occ. eigenvalues --  -10.20612 -10.20068  -9.39846  -7.93008  -7.60772
 Alpha  occ. eigenvalues --   -7.16028  -7.15297  -7.15242  -6.64790  -5.89426
 Alpha  occ. eigenvalues --   -5.89058  -5.88475  -5.73804  -5.73506  -5.72463
 Alpha  occ. eigenvalues --   -4.81064  -4.81028  -4.80772  -4.22651  -2.36556
 Alpha  occ. eigenvalues --   -2.36475  -2.34066  -2.10012  -2.09985  -2.09122
 Alpha  occ. eigenvalues --   -2.08885  -2.08678  -1.12476  -1.05333  -1.04662
 Alpha  occ. eigenvalues --   -1.04042  -1.03501  -1.03457  -0.99607  -0.96331
 Alpha  occ. eigenvalues --   -0.94777  -0.93287  -0.92923  -0.92069  -0.91665
 Alpha  occ. eigenvalues --   -0.91579  -0.88267  -0.80192  -0.77550  -0.75687
 Alpha  occ. eigenvalues --   -0.75062  -0.74108  -0.72924  -0.72610  -0.72118
 Alpha  occ. eigenvalues --   -0.71762  -0.71706  -0.71456  -0.69243  -0.64600
 Alpha  occ. eigenvalues --   -0.64260  -0.63873  -0.63422  -0.62191  -0.61507
 Alpha  occ. eigenvalues --   -0.60706  -0.59661  -0.57189  -0.56917  -0.56472
 Alpha  occ. eigenvalues --   -0.54178  -0.51996  -0.51383  -0.51278  -0.51075
 Alpha  occ. eigenvalues --   -0.50984  -0.50780  -0.50040  -0.49537  -0.49495
 Alpha  occ. eigenvalues --   -0.49223  -0.48757  -0.47692  -0.47607  -0.46786
 Alpha  occ. eigenvalues --   -0.46559  -0.46156  -0.45823  -0.45681  -0.45086
 Alpha  occ. eigenvalues --   -0.44930  -0.44784  -0.44374  -0.44087  -0.43589
 Alpha  occ. eigenvalues --   -0.43349  -0.43015  -0.42373  -0.41963  -0.41742
 Alpha  occ. eigenvalues --   -0.41363  -0.41234  -0.41140  -0.41001  -0.40925
 Alpha  occ. eigenvalues --   -0.40724  -0.40502  -0.40055  -0.39918  -0.39530
 Alpha  occ. eigenvalues --   -0.39029  -0.38877  -0.38694  -0.38501  -0.38314
 Alpha  occ. eigenvalues --   -0.38087  -0.37951  -0.37605  -0.37087  -0.36914
 Alpha  occ. eigenvalues --   -0.36700  -0.36253  -0.35807  -0.33962  -0.33599
 Alpha  occ. eigenvalues --   -0.32309  -0.31427  -0.31204  -0.29797  -0.29576
 Alpha  occ. eigenvalues --   -0.28757  -0.28267  -0.27710  -0.27076  -0.26779
 Alpha  occ. eigenvalues --   -0.26709  -0.26541  -0.26263  -0.26158  -0.25526
 Alpha  occ. eigenvalues --   -0.25246  -0.24907  -0.24549  -0.23434  -0.23141
 Alpha  occ. eigenvalues --   -0.23010  -0.22748  -0.19687
 Alpha virt. eigenvalues --   -0.10541  -0.01007  -0.00895  -0.00305  -0.00237
 Alpha virt. eigenvalues --    0.01211   0.02272   0.03024   0.03663   0.03927
 Alpha virt. eigenvalues --    0.04946   0.05526   0.06253   0.06294   0.07136
 Alpha virt. eigenvalues --    0.07690   0.08218   0.09166   0.09393   0.09682
 Alpha virt. eigenvalues --    0.10568   0.11360   0.11665   0.11972   0.12373
 Alpha virt. eigenvalues --    0.12413   0.12833   0.13078   0.13253   0.13803
 Alpha virt. eigenvalues --    0.14027   0.14119   0.14536   0.14905   0.15231
 Alpha virt. eigenvalues --    0.15857   0.15916   0.16273   0.16538   0.16769
 Alpha virt. eigenvalues --    0.16872   0.17561   0.17944   0.18128   0.18297
 Alpha virt. eigenvalues --    0.18455   0.18530   0.18742   0.18795   0.19208
 Alpha virt. eigenvalues --    0.19489   0.19794   0.20189   0.20295   0.20555
 Alpha virt. eigenvalues --    0.20986   0.21101   0.21608   0.21792   0.22322
 Alpha virt. eigenvalues --    0.22575   0.22947   0.23059   0.23582   0.23852
 Alpha virt. eigenvalues --    0.24516   0.24599   0.25377   0.25823   0.26174
 Alpha virt. eigenvalues --    0.26341   0.26557   0.26684   0.27145   0.27306
 Alpha virt. eigenvalues --    0.28639   0.29614   0.30861   0.32812   0.34403
 Alpha virt. eigenvalues --    0.34737   0.35228   0.35796   0.36359   0.37275
 Alpha virt. eigenvalues --    0.37510   0.37885   0.38589   0.39441   0.40551
 Alpha virt. eigenvalues --    0.41368   0.41511   0.42349   0.42834   0.43456
 Alpha virt. eigenvalues --    0.44279   0.44858   0.45432   0.45970   0.46577
 Alpha virt. eigenvalues --    0.47363   0.48071   0.48588   0.49213   0.49837
 Alpha virt. eigenvalues --    0.50139   0.50849   0.50976   0.51270   0.52027
 Alpha virt. eigenvalues --    0.52309   0.53223   0.53635   0.54220   0.54586
 Alpha virt. eigenvalues --    0.54738   0.55050   0.55973   0.56342   0.56813
 Alpha virt. eigenvalues --    0.57607   0.57638   0.58242   0.58402   0.59290
 Alpha virt. eigenvalues --    0.59796   0.60616   0.60828   0.61163   0.61806
 Alpha virt. eigenvalues --    0.62422   0.62768   0.63479   0.63709   0.64298
 Alpha virt. eigenvalues --    0.64593   0.64773   0.65156   0.65441   0.66297
 Alpha virt. eigenvalues --    0.66347   0.66628   0.67120   0.67334   0.68297
 Alpha virt. eigenvalues --    0.69124   0.69181   0.69578   0.69674   0.70579
 Alpha virt. eigenvalues --    0.70854   0.70979   0.71620   0.71936   0.72139
 Alpha virt. eigenvalues --    0.72967   0.73229   0.73894   0.74948   0.74996
 Alpha virt. eigenvalues --    0.75600   0.76614   0.77064   0.77685   0.78230
 Alpha virt. eigenvalues --    0.78538   0.78896   0.79423   0.79780   0.79832
 Alpha virt. eigenvalues --    0.80532   0.81166   0.81454   0.81603   0.82072
 Alpha virt. eigenvalues --    0.82618   0.83073   0.83291   0.83442   0.83969
 Alpha virt. eigenvalues --    0.84153   0.84432   0.84756   0.85180   0.85507
 Alpha virt. eigenvalues --    0.85814   0.86221   0.86522   0.86926   0.87401
 Alpha virt. eigenvalues --    0.87602   0.88008   0.88140   0.88837   0.89556
 Alpha virt. eigenvalues --    0.89841   0.89868   0.90458   0.90712   0.90941
 Alpha virt. eigenvalues --    0.90989   0.91191   0.91497   0.91774   0.92059
 Alpha virt. eigenvalues --    0.92328   0.92430   0.92630   0.92706   0.93514
 Alpha virt. eigenvalues --    0.93922   0.94263   0.94437   0.94967   0.95211
 Alpha virt. eigenvalues --    0.95475   0.95650   0.96194   0.97242   0.97402
 Alpha virt. eigenvalues --    0.97692   0.97997   0.98418   0.99114   0.99400
 Alpha virt. eigenvalues --    0.99703   1.00165   1.00373   1.00453   1.00636
 Alpha virt. eigenvalues --    1.01309   1.01565   1.01840   1.03247   1.03450
 Alpha virt. eigenvalues --    1.04327   1.04772   1.05098   1.05518   1.06348
 Alpha virt. eigenvalues --    1.06595   1.07166   1.08121   1.08167   1.09282
 Alpha virt. eigenvalues --    1.10213   1.10700   1.11361   1.11928   1.12177
 Alpha virt. eigenvalues --    1.12695   1.13813   1.14343   1.14571   1.14830
 Alpha virt. eigenvalues --    1.15696   1.17059   1.17539   1.17936   1.18500
 Alpha virt. eigenvalues --    1.19696   1.20266   1.21375   1.21625   1.22673
 Alpha virt. eigenvalues --    1.23271   1.23848   1.25698   1.26714   1.28070
 Alpha virt. eigenvalues --    1.28951   1.29606   1.29958   1.31684   1.32120
 Alpha virt. eigenvalues --    1.33022   1.33722   1.34290   1.35099   1.36068
 Alpha virt. eigenvalues --    1.37965   1.38300   1.39098   1.39657   1.40170
 Alpha virt. eigenvalues --    1.41161   1.42550   1.43929   1.44076   1.44680
 Alpha virt. eigenvalues --    1.45098   1.45341   1.45972   1.47224   1.48973
 Alpha virt. eigenvalues --    1.49476   1.49887   1.50650   1.51383   1.51771
 Alpha virt. eigenvalues --    1.53224   1.53750   1.57217   1.57629   1.57957
 Alpha virt. eigenvalues --    1.58675   1.59760   1.61047   1.61529   1.63117
 Alpha virt. eigenvalues --    1.63474   1.64458   1.65115   1.66110   1.67572
 Alpha virt. eigenvalues --    1.68324   1.68739   1.69320   1.70197   1.71250
 Alpha virt. eigenvalues --    1.72473   1.73031   1.74466   1.75758   1.75903
 Alpha virt. eigenvalues --    1.76657   1.77915   1.78496   1.79415   1.79728
 Alpha virt. eigenvalues --    1.80956   1.81134   1.81847   1.81900   1.83030
 Alpha virt. eigenvalues --    1.83938   1.84026   1.85180   1.85366   1.85963
 Alpha virt. eigenvalues --    1.85994   1.86984   1.87596   1.88281   1.88748
 Alpha virt. eigenvalues --    1.89619   1.89719   1.90122   1.90629   1.91605
 Alpha virt. eigenvalues --    1.92499   1.92954   1.93374   1.93830   1.94107
 Alpha virt. eigenvalues --    1.94565   1.94706   1.95108   1.95324   1.95700
 Alpha virt. eigenvalues --    1.96103   1.96336   1.96645   1.97499   1.97702
 Alpha virt. eigenvalues --    1.97962   1.99152   1.99330   2.00062   2.00329
 Alpha virt. eigenvalues --    2.00554   2.01047   2.01413   2.01733   2.02372
 Alpha virt. eigenvalues --    2.03027   2.03145   2.03764   2.04251   2.04805
 Alpha virt. eigenvalues --    2.05204   2.05682   2.06217   2.07040   2.07508
 Alpha virt. eigenvalues --    2.08407   2.08793   2.08954   2.09333   2.09484
 Alpha virt. eigenvalues --    2.09792   2.10535   2.10683   2.11475   2.11789
 Alpha virt. eigenvalues --    2.13242   2.13938   2.14567   2.14677   2.15052
 Alpha virt. eigenvalues --    2.15698   2.17064   2.17497   2.18239   2.19031
 Alpha virt. eigenvalues --    2.19773   2.20484   2.21089   2.22454   2.22695
 Alpha virt. eigenvalues --    2.23522   2.24092   2.24803   2.25099   2.25657
 Alpha virt. eigenvalues --    2.26694   2.27552   2.28658   2.28870   2.30558
 Alpha virt. eigenvalues --    2.32393   2.33225   2.34450   2.35306   2.35896
 Alpha virt. eigenvalues --    2.36373   2.36845   2.37258   2.39386   2.39999
 Alpha virt. eigenvalues --    2.40944   2.41083   2.41346   2.42412   2.42729
 Alpha virt. eigenvalues --    2.43224   2.44009   2.44041   2.45065   2.45718
 Alpha virt. eigenvalues --    2.48315   2.50149   2.50344   2.51368   2.52018
 Alpha virt. eigenvalues --    2.52288   2.53468   2.55410   2.56989   2.57113
 Alpha virt. eigenvalues --    2.57886   2.59047   2.59841   2.60971   2.61119
 Alpha virt. eigenvalues --    2.63085   2.64177   2.64635   2.65255   2.65404
 Alpha virt. eigenvalues --    2.65845   2.67046   2.69225   2.70618   2.71452
 Alpha virt. eigenvalues --    2.71541   2.72723   2.73013   2.73984   2.74690
 Alpha virt. eigenvalues --    2.79277   2.79329   2.84199   2.84846   2.86298
 Alpha virt. eigenvalues --    2.91128   2.91934   2.93829   2.96180   2.96292
 Alpha virt. eigenvalues --    2.99209   3.01140   3.05673   3.06147   3.08334
 Alpha virt. eigenvalues --    3.11086   3.12990   3.14762   3.19537   3.20467
 Alpha virt. eigenvalues --    8.03221  15.61612  15.65522  15.68828  43.24853
          Condensed to atoms (all electrons):
 Mulliken charges:
               1
     1  Au  -0.456508
     2  P    1.230387
     3  C   -0.338286
     4  H    0.191004
     5  H    0.201235
     6  H    0.154402
     7  C   -0.320260
     8  H    0.162354
     9  H    0.145485
    10  H    0.178099
    11  C   -0.340943
    12  H    0.247343
    13  H    0.168606
    14  H    0.141349
    15  N   -0.708460
    16  C   -0.105560
    17  C    0.562089
    18  O   -0.508937
    19  C   -0.002407
    20  O   -0.663307
    21  N   -0.591698
    22  C   -0.237221
    23  C    0.549391
    24  O   -0.501437
    25  N   -0.554497
    26  C   -0.050334
    27  C    0.554712
    28  O   -0.510271
    29  C   -0.460753
    30  S   -0.022074
    31  N   -0.557688
    32  C   -0.026890
    33  C   -0.378027
    34  C    0.567804
    35  O   -0.467617
    36  N   -0.589033
    37  C   -0.236096
    38  C    0.535292
    39  O   -0.421423
    40  O   -0.564020
    41  H    0.136952
    42  H    0.136948
    43  H    0.430134
    44  H    0.149159
    45  H    0.308199
    46  H    0.301129
    47  H    0.186073
    48  H    0.180497
    49  H    0.377433
    50  H    0.192946
    51  H    0.231800
    52  H    0.173628
    53  H    0.353567
    54  H    0.199526
    55  H    0.207876
    56  H    0.199396
    57  H    0.387749
    58  H    0.188058
    59  H    0.268007
    60  H    0.359472
    61  H    0.423837
    62  Se  -0.101532
    63  N   -0.511817
    64  N   -0.510893
    65  N   -0.549093
    66  C   -0.322965
    67  H    0.153126
    68  H    0.163756
    69  H    0.175723
    70  C   -0.347242
    71  H    0.190821
    72  H    0.198628
    73  H    0.159012
    74  C   -0.342836
    75  H    0.147434
    76  H    0.165343
    77  H    0.223909
    78  Cl  -0.259569
 Sum of Mulliken charges =   0.00000
 Mulliken charges with hydrogens summed into heavy atoms:
               1
     1  Au  -0.456508
     2  P    1.230387
     3  C    0.208356
     7  C    0.165679
    11  C    0.216356
    15  N   -0.099131
    16  C    0.043599
    17  C    0.562089
    18  O   -0.508937
    19  C    0.271494
    20  O   -0.233173
    21  N   -0.214265
    22  C    0.129349
    23  C    0.549391
    24  O   -0.501437
    25  N   -0.200930
    26  C    0.123294
    27  C    0.554712
    28  O   -0.510271
    29  C   -0.036008
    30  S   -0.022074
    31  N   -0.169939
    32  C    0.172506
    33  C    0.029375
    34  C    0.567804
    35  O   -0.467617
    36  N   -0.229560
    37  C    0.219969
    38  C    0.535292
    39  O   -0.421423
    40  O   -0.140184
    62  Se  -0.101532
    63  N   -0.511817
    64  N   -0.510893
    65  N   -0.549093
    66  C    0.169640
    70  C    0.201220
    74  C    0.193850
    78  Cl  -0.259569
 Electronic spatial extent (au):  <R**2>=          24785.5987
 Charge=              0.0000 electrons
 Dipole moment (field-independent basis, Debye):
    X=             -2.4740    Y=             -1.6561    Z=              3.0841  Tot=              4.2866
 Quadrupole moment (field-independent basis, Debye-Ang):
   XX=           -247.7442   YY=           -265.3728   ZZ=           -296.2697
   XY=             12.5441   XZ=            -26.1269   YZ=              6.2249
 Traceless Quadrupole moment (field-independent basis, Debye-Ang):
   XX=             22.0513   YY=              4.4227   ZZ=            -26.4741
   XY=             12.5441   XZ=            -26.1269   YZ=              6.2249
 Octapole moment (field-independent basis, Debye-Ang**2):
  XXX=           -250.5190  YYY=             52.1744  ZZZ=           -102.6521  XYY=             46.0316
  XXY=             43.4010  XXZ=            -13.2303  XZZ=           -148.6835  YZZ=             21.2377
[...]
 .00008653,-0.00003092,-0.00014340,-0.00021334,-0.00079385,-0.00012442,
 0.00836736,-0.01104049,-0.00459384,0.00036925,-0.00056603,-0.00060456,
 -0.00005635,0.00005443,-0.00018725,0.00002466,-0.00002013,0.00009442,-
 0.00000376,-0.00002189,0.00004102,-0.00003431,0.00001535,0.00000615,0.
 00000357,-0.00015607,0.00006042,0.00002452,0.00001750,-0.00003507,-0.0
 0000362,-0.00001375,0.00002284,0.00001671,0.00003846,-0.00002984,0.013
 59697,-0.04463282,-0.05941891,-0.00903007,0.02627768,0.00591715,-0.022
 61736,0.05017146,0.06024153,0.00045140,0.00036428,0.00041394,-0.002239
 61,-0.00056866,-0.00180660,0.00008241,0.00011279,0.00006440,-0.0000123
 1,0.00001080,-0.00000038,-0.00002574,0.00000498,0.00000578,0.00005939,
 -0.00002939,-0.00005177,-0.00519590,0.00082026,0.00402937,0.00012553,-
 0.00026692,0.00007454,0.00014008,0.00023637,0.00000140,-0.00104853,-0.
 00082877,-0.00156116,-0.00016348,-0.00003449,-0.00000620,0.00001161,0.
 00040097,0.00013664,0.00008974,0.00000457,0.00000656,0.00000034,0.0000
 3806,-0.00002414,0.00010150,-0.00003187,0.00001249,0.00002866,0.000075
 12,-0.00005817,-0.00000265,0.00007474,-0.00016514,0.00001446,-0.000035
 60,0.00007081,-0.00043721,-0.00037069,0.00010814,0.00043023,0.00021168
 ,-0.00024591,-0.00000273,-0.00005580,0.00009304,-0.00001108,0.00006238
 ,-0.00000257,0.00009539,0.00004848,-0.00024318,-0.00003154,-0.00013613
 ,0.00019698,-0.00019902,-0.00014339,0.00011458,0.00002280,0.00001633,-
 0.00013378,0.00003326,0.00030943,-0.00015802,0.00001151,-0.00007204,0.
 00014531,0.00039246,-0.00002080,-0.00010905,-0.00036119,0.00014941,0.0
 0002017,-0.00023192,-0.00018114,0.00019494,0.00005254,-0.00009783,0.00
 000901,0.00007510,0.00001439,-0.00015796,-0.00084042,-0.00026219,-0.00
 052653,0.00020295,0.00024238,0.00032125,0.00020409,0.00026075,0.000056
 55,-0.00003032,-0.00004578,-0.00009658,-0.00003994,-0.00006648,0.00000
 628,0.00001873,0.00003797,0.00000200,0.00003898,0.00003791,0.00001061,
 0.00011864,0.00001406,-0.00005382,0.00000637,0.00001766,0.00000590,-0.
 00005110,0.00021382,0.00000866,0.00000422,-0.00000217,0.00000029,-0.00
 000958,-0.00000158,-0.00000240,0.00002383,0.00001290,0.00002291,-0.000
 00690,0.00000065,-0.00000442,0.00000283,-0.00000704,0.00001045,0.00000
 004,-0.00000339,-0.00002098,-0.00007367,0.00002828,-0.00003286,-0.0000
 7775,0.00004617,-0.00003666,-0.00002788,-0.00000691,0.00003040,0.00011
 545,0.00017179,-0.00003390,-0.00005889,-0.00004750,0.00006530,-0.00000
 630,-0.00000820,0.00002972,0.00000224,0.00000963,0.00004104,-0.0001430
 8,0.00005214,-0.00079929,0.00001547,0.00001309,0.00001646,0.00002348,0
 .00000447,-0.00000149,0.00001850,-0.00005406,0.00000920,-0.00000259,-0
 .00000783,-0.00000416,-0.00008861,0.00000353,0.00001389,-0.00001345,0.
 00040423,0.00017632,-0.02076033,-0.01265580,-0.02324252,0.00062989,-0.
 00019716,0.00014543,-0.00009752,-0.00002587,-0.00003561,-0.00000868,-0
 .00002328,0.00004370,0.00000958,0.00001395,0.00000860,0.00005754,-0.00
 001951,-0.00001480,-0.00000835,-0.00018978,-0.00002365,-0.00002420,0.0
 0002830,0.00002083,-0.00004263,0.00006957,-0.00005269,0.00003033,0.000
 04394,-0.00001837,-0.13767829,-0.05997386,-0.10697483,0.00269786,0.001
 90208,0.00138006,0.00807408,0.00369825,0.00871413,0.15549680,-0.000092
 10,0.00065498,-0.00032086,0.00091429,0.00107148,-0.00072137,0.00006827
 ,0.00002421,0.00005141,0.00001156,-0.00000908,-0.00000882,-0.00001059,
 0.00000238,0.00000623,0.00000996,-0.00002016,-0.00001641,0.00003416,0.
 00009925,0.00035511,0.00019676,0.00043204,0.00024665,-0.00006012,0.000
 12179,-0.00040489,0.00015005,0.00052926,-0.00024228,0.00019107,0.00012
 376,0.00004430,0.00025826,-0.00002265,-0.00024460,-0.00010579,0.000025
 83,-0.00000580,0.00002163,-0.00006287,0.00008937,-0.00005842,0.0000010
 9,0.00000147,-0.00002643,-0.00004399,0.00002921,0.00005837,0.00025845,
 0.00000515,0.00000660,-0.00021850,-0.00007165,0.00024496,0.00026781,-0
 .00006541,-0.00061138,-0.00050123,0.00016855,-0.00006808,-0.00012127,0
 .00005098,0.00002472,0.00002719,0.00003422,0.00034421,-0.00010626,-0.0
 0014707,-0.00015492,0.00010268,0.00009724,-0.00014822,0.00021864,-0.00
 001327,-0.00006783,0.00000628,0.00015505,0.00003668,0.00021628,0.00001
 472,-0.00005957,-0.00013083,-0.00006676,0.00040415,-0.00022837,-0.0001
 6151,-0.00005691,-0.00000833,-0.00019182,0.00015458,-0.00023582,0.0001
 7818,0.00005652,0.00021067,0.00008213,0.00011274,-0.00010164,-0.000028
 58,-0.00138421,-0.00020431,-0.00084702,0.00090383,-0.00037728,0.000986
 63,0.00056363,0.00055951,0.00015478,-0.00013616,-0.00004968,-0.0001695
 6,-0.00010071,-0.00009369,0.00000092,0.00007042,0.00004305,0.00001135,
 0.00010466,0.00006538,0.00001833,-0.00007273,-0.00001845,0.00003519,-0
 .00005513,-0.00004864,-0.00000153,0.00038047,-0.00005513,-0.00013860,0
 .00002076,-0.00001050,-0.00000519,-0.00000297,0.00000612,-0.00000745,-
 0.00001036,-0.00000532,-0.00001072,-0.00001889,-0.00000885,-0.00000536
 ,-0.00000285,-0.00000900,-0.00000674,0.00000621,0.00000703,0.00000855,
 -0.00003665,0.00003650,-0.00002793,-0.00009207,0.00014997,-0.00008479,
 -0.00003378,-0.00001931,-0.00003327,0.00014410,-0.00041856,0.00000916,
 -0.00001368,0.00000310,0.00002151,-0.00000142,-0.00002638,-0.00002093,
 -0.00000143,-0.00007033,0.00004012,0.00003645,0.00039976,0.00024961,0.
 00003889,0.00002002,0.00003709,0.00004634,0.00005611,0.00003081,-0.000
 03950,-0.00008175,0.00003838,-0.00001219,-0.00000163,-0.00000008,0.000
 03541,0.00009317,0.00012671,-0.00001146,-0.00009552,0.00007861,0.00038
 413,-0.00112907,0.00176706,0.00007011,-0.00022358,0.00019039,0.0000047
 1,-0.00007634,0.00013327,0.00001080,0.00001595,-0.00002661,0.00000742,
 0.00000399,-0.00001455,-0.00002827,0.00000144,-0.00003608,-0.00000195,
 0.00001943,-0.00004071,-0.00002384,0.00000658,0.00002167,-0.00000205,0
 .00000248,-0.00003028,0.00000251,-0.00001020,0.00001645,-0.06351620,-0
 .09515138,-0.08208465,0.01165538,0.00877525,0.01410550,-0.01705981,-0.
 01045545,-0.02190910,0.06630764,0.09611871,0.00028173,0.00008590,-0.00
 047861,0.00162876,-0.00087086,0.00117419,0.00006930,-0.00003477,0.0000
 8544,-0.00000075,0.00000485,0.00000041,0.00000278,0.00001166,0.0000015
 3,0.00000362,-0.00000257,-0.00001796,0.00149030,0.00013656,-0.00130497
 ,0.00006765,0.00012549,-0.00006922,0.00020548,-0.00026282,0.00035798,0
 .00073041,0.00003677,0.00068294,-0.00013754,-0.00014492,0.00000608,0.0
 0009169,-0.00009800,0.00017978,0.00010082,-0.00000087,-0.00002102,-0.0
 0003944,0.00010165,-0.00013332,-0.00008881,0.00003471,-0.00003292,-0.0
 0004315,-0.00006736,0.00005758,-0.00002946,-0.00004613,0.00019580,0.00
 001581,0.00000638,-0.00009532,0.00035724,0.00027796,-0.00015351,-0.000
 82186,-0.00006830,-0.00010767,0.00003448,0.00003889,-0.00010066,0.0000
 0207,-0.00003073,-0.00000315,-0.00019140,0.00002128,0.00034607,0.00001
 433,0.00011739,-0.00028002,0.00025610,-0.00005259,-0.00007806,-0.00000
 343,-0.00001212,0.00006408,-0.00005022,0.00018478,-0.00008243,0.000089
 93,-0.00005389,0.00006881,0.00003657,0.00004382,-0.00009274,0.00031580
 ,0.00076669,-0.00150771,0.00003184,-0.00012356,-0.00004658,-0.00002479
 ,-0.00001440,0.00002219,0.00000484,-0.00000791,0.00005308,-0.00021831,
 -0.00012897,-0.00015464,-0.00021480,-0.00035461,-0.00060992,0.00012823
 ,0.00007913,-0.00001296,-0.00000262,0.00002985,-0.00000418,0.00001971,
 -0.00002214,0.00005624,-0.00000757,0.00001052,-0.00004342,-0.00000988,
 0.00000126,-0.00002000,-0.00006257,-0.00000928,0.00002707,-0.00000334,
 -0.00001587,0.00001301,0.00012979,-0.00021972,0.00010137,-0.00000748,0
 .00000300,-0.00000315,0.00000663,-0.00000137,0.00001279,-0.00002558,-0
 .00001081,-0.00001736,0.00000914,-0.00000442,0.00000278,-0.00000347,0.
 00000769,-0.00000725,-0.00002775,0.00001085,0.00002544,0.00001255,0.00
 000115,-0.00000957,0.00001948,0.00001863,-0.00001939,0.00001296,-0.000
 00464,-0.00001715,-0.00004629,-0.00008342,0.00015643,0.00001805,0.0000
 1691,-0.00001384,-0.00000254,0.00000418,-0.00000286,0.00000578,0.00002
 534,0.00001954,-0.00072428,0.00002413,-0.00047560,-0.00000020,-0.00000
 587,-0.00000437,-0.00000045,0.00000810,0.00001310,0.00000372,0.0000160
 3,0.00004568,0.00000265,0.00000616,0.00000555,0.00003660,-0.00000092,0
 .00001278,0.00001669,0.00000478,-0.00030145,0.00742147,0.00758365,0.01
 152114,-0.00021980,0.00000102,0.00010709,0.00000221,0.00008634,-0.0001
 0855,-0.00001113,-0.00001570,0.00000299,-0.00001230,-0.00000078,0.0000
 1381,0.00001685,0.00000884,0.00001664,0.00000906,0.00005114,0.00000670
 ,0.00000578,-0.00000617,-0.00001401,-0.00000123,-0.00001846,0.00001722
 ,-0.00000872,0.00000937,-0.00001999,-0.11486538,-0.08365171,-0.1981855
 6,-0.01365518,-0.01147366,-0.01767072,-0.00195264,-0.00074025,-0.00350
 845,0.11985727,0.08854029,0.21033848,-0.01754734,0.02164582,0.00272411
 ,-0.00206110,0.00093016,0.00010799,-0.00156629,0.00038551,0.00095494,0
 .00032545,-0.00037937,0.00055009,0.00011081,0.00044238,-0.00124378,-0.
 00016729,-0.00044576,-0.00058558,-0.00005426,0.00001244,-0.00008727,0.
 00001116,-0.00001917,-0.00002481,0.00000371,-0.00000056,0.00003323,0.0
 0005596,0.00003001,0.00002428,-0.00114493,0.00010167,0.00079769,0.0000
 2217,-0.00036296,0.00094916,-0.00005287,-0.00012509,0.00015586,0.00029
 423,-0.00008081,0.00013982,-0.00005477,-0.00001841,0.00006287,0.000035
 66,0.00001274,-0.00001205,0.00006944,0.00009559,-0.00010336,-0.0000781
 1,-0.00004877,0.00002958,0.00010589,0.00003841,-0.00005228,-0.00009643
 ,-0.00006790,0.00010274,-0.00011125,-0.00004799,0.00007204,0.00003477,
 0.00002596,0.00001656,0.00049244,-0.00010305,-0.00046195,-0.00014743,0
 .00004038,0.00036234,-0.00043983,0.00007499,0.00021134,0.00001371,-0.0
 0029830,-0.00019213,0.00019030,0.00031535,0.00049701,-0.00018951,-0.00
 012725,-0.00032805,0.00085351,0.00012161,-0.00026893,0.00311121,0.0022
 9048,0.00182890,-0.00009787,-0.00008972,-0.00015314,0.00021177,0.00027
 699,-0.00005055,-0.00022805,-0.00015687,-0.00040909,0.00131859,0.00046
 893,0.00090430,-0.00205248,0.00026476,-0.00003143,-0.00041014,-0.00055
 877,-0.00007822,0.00020211,0.00001405,0.00014288,0.00018434,0.00023914
 ,-0.00006471,-0.00009116,-0.00013335,0.00004135,-0.00015148,-0.0001291
 5,-0.00002398,-0.00001948,0.00000382,0.00002857,-0.00000072,-0.0000045
 7,-0.00000980,0.00000401,0.00006565,-0.00006951,0.00001198,-0.00000135
 ,-0.00000332,0.00001521,0.00000588,-0.00002588,0.00000694,-0.00000042,
 -0.00002405,-0.00002432,-0.00000470,0.00000686,0.00001360,-0.00001792,
 -0.00000185,0.00007093,-0.00000903,-0.00000484,-0.00038330,-0.00021094
 ,-0.00028649,-0.00030650,-0.00004987,-0.00022735,-0.00006770,0.0000132
 3,0.00002931,0.00018925,-0.00006334,-0.00008999,0.00003021,0.00030605,
 -0.00011382,0.00059197,0.00027605,0.00015460,0.00000751,-0.00001078,-0
 .00008459,0.00025711,0.00009945,-0.00001216,-0.00004810,-0.00002243,-0
 .00003096,-0.00004331,-0.00001537,-0.00001841,0.00002553,0.00010820,-0
 .00009106,0.00001525,0.00002263,0.00000876,-0.00322898,0.00405674,-0.0
 0166209,0.00101088,-0.00102664,-0.00156709,0.00058096,-0.00047944,-0.0
 0000700,0.00152594,-0.00025023,0.00013568,0.00027824,-0.00022647,0.000
 05967,-0.00006146,0.00001722,-0.00014925,0.00002681,-0.00002462,0.0001
 6051,0.00000958,0.00005335,0.00003840,0.00016683,0.00006023,-0.0000494
 2,-0.00014250,0.00010955,0.00002559,-0.00006165,-0.00012304,-0.0001473
 6,0.00006004,0.00002814,0.00003779,-0.00024115,-0.00002590,-0.00009114
 ,0.00007776,-0.00002003,0.00004377,0.00005002,-0.00003331,-0.00009804,
 0.00004305,0.00008525,-0.00005181,0.01865489,0.02146776,-0.07387790,-0
 .01231292,0.00110586,-0.00719298,-0.00434323,-0.00012646,-0.00075741,0
 .00008711,-0.00017121,0.00002996,-0.00032465,-0.00010830,-0.00021266,-
 0.00021596,-0.00007300,0.00008271,-0.00004556,0.00010241,-0.00005625,0
 .00015594,0.00001132,0.00002480,0.00005974,0.00000168,0.00001610,-0.00
 012756,-0.00003870,-0.00004769,-0.00000227,-0.00057132,-0.00095711,0.0
 0053537,0.00057453,-0.00071137,-0.00025250,-0.00040323,0.00091382,-0.0
 0035935,0.00022779,0.00046908,0.00059199,0.00010487,0.00006945,-0.0001
 1483,-0.00005402,-0.00003818,0.00002584,-0.00022490,-0.00079482,0.0003
 0275,0.00011190,0.00061616,0.00006756,-0.00023902,-0.00019647,0.000101
 25,0.00025329,0.00036578,-0.00022440,0.00030613,0.00041200,-0.00032769
 ,-0.00007130,-0.00022267,-0.00012639,-0.00145044,0.00026173,0.00148545
 ,0.00047486,-0.00003485,-0.00105207,0.00180584,-0.00013022,-0.00042668
 ,0.00018847,-0.00020359,0.00027860,-0.00056844,-0.00138665,-0.00065216
 ,0.00042799,0.00065017,0.00059082,-0.00174078,0.00001935,-0.00043502,0
 .00218367,-0.00300933,-0.00424073,0.00016058,0.00097253,0.00009318,0.0
 0009570,-0.00044804,-0.00047949,-0.00003502,-0.00067848,-0.00018938,-0
 .00001654,-0.00101099,-0.00001004,0.00044211,0.00103445,-0.00008106,0.
 00000937,0.00083330,0.00012574,0.00005692,0.00005115,-0.00010282,0.000
 09168,-0.00025088,0.00018200,-0.00010284,0.00020142,-0.00010044,-0.000
 05815,0.00008319,-0.00002602,0.00003849,0.00000410,-0.00005041,0.00003
 883,0.00005055,0.00001044,-0.00007670,-0.00027483,0.00021809,-0.000056
 24,0.00002444,0.00002081,-0.00001155,-0.00002320,0.00005814,-0.0000155
 4,-0.00000461,0.00003456,0.00009581,0.00002992,0.00000534,-0.00003353,
 0.00005584,-0.00000891,-0.00012862,-0.00000626,0.00000943,0.00087320,0
 .00029751,0.00044708,0.00071003,0.00007521,0.00025208,0.00035781,0.000
 04032,-0.00011708,-0.00109635,0.00019077,0.00041347,-0.00017379,0.0002
 8028,-0.00006361,0.00053386,0.00038035,0.00008005,0.00005237,0.0000887
 1,0.00005588,-0.00065251,-0.00044011,0.00024884,0.00005783,-0.00002921
 ,0.00002628,-0.00000446,-0.00009595,-0.00001123,0.00024323,-0.00017660
 ,-0.00011069,0.00004454,-0.00003221,-0.00002310,0.00351261,-0.00303578
 ,0.00302987,-0.00020088,0.00152831,0.00032995,-0.00071792,0.00132710,-
 0.00045572,-0.00020755,0.00137908,-0.00010219,-0.00013159,0.00025785,0
 .00016197,0.00005031,-0.00004886,0.00011455,-0.00019028,0.00009689,-0.
 00014700,0.00014111,-0.00001331,0.00006419,0.00004609,-0.00044536,0.00
 026938,0.00019397,0.00000268,-0.00022090,0.00011793,0.00012401,0.00024
 237,-0.00011754,0.00012695,-0.00012793,0.00024529,-0.00015310,0.000107
 78,-0.00016285,0.00008930,-0.00021369,-0.00008306,0.00014452,0.0002434
 8,-0.00011826,-0.00032624,0.00011739,-0.02732516,0.08362231,0.00499443
 ,-0.01820283,-0.01512192,-0.00166929,-0.00275603,-0.00482022,-0.000396
 18,0.00016746,-0.00035902,0.00032110,-0.00017010,0.00005031,-0.0002956
 0,-0.00020333,-0.00008448,-0.00000863,-0.00015365,0.00002604,-0.000032
 81,0.00002070,-0.00002718,0.00001416,-0.00000930,0.00002324,-0.0000002
 4,0.00001656,0.00002680,0.00000065,-0.00002324,-0.00003990,0.00202861,
 -0.00016107,-0.00311261,-0.00061283,0.00099242,-0.00263676,0.00026857,
 -0.00031803,0.00001512,-0.00068371,-0.00028544,-0.00076725,0.00002396,
 0.00000400,-0.00002172,-0.00001550,-0.00000426,0.00000388,-0.00001864,
 0.00000283,0.00002453,0.00003562,-0.00001099,-0.00001381,-0.00004445,-
 0.00000451,0.00001907,0.00004352,0.00000179,-0.00003055,0.00003433,-0.
 00000175,-0.00001015,-0.00001624,0.00000298,0.00000284,-0.00016008,0.0
 0002916,0.00011424,0.00004380,-0.00002456,-0.00011023,0.00009843,-0.00
 004756,-0.00004652,0.00002409,0.00012820,0.00010309,-0.00005044,-0.000
 10709,-0.00033605,-0.00000510,0.00005665,0.00018647,-0.00046582,-0.001
 11289,0.00006424,-0.00018234,0.00153561,0.00278750,-0.00001752,0.00001
 186,0.00022920,-0.00007095,0.00006523,-0.00007071,0.00051631,0.0004921
 7,0.00044222,-0.00063508,-0.00045031,-0.00054659,0.00109602,-0.0000945
 3,0.00015556,0.00021108,0.00042784,0.00006466,-0.00010750,-0.00002134,
 -0.00008550,-0.00010242,-0.00010728,-0.00000736,0.00005554,0.00005816,
 0.00000875,0.00008644,0.00006907,0.00002782,0.00000592,-0.00000184,-0.
 00000921,-0.00000322,-0.00000212,0.00000167,0.00000241,-0.00000909,0.0
 0001470,-0.00000156,-0.00000116,0.00000083,-0.00000786,-0.00000135,0.0
 0000763,-0.00000195,0.00000028,0.00001038,0.00000521,0.00000113,-0.000
 00525,-0.00000683,0.00000585,0.00000056,-0.00002633,0.00000498,0.00000
 053,0.00046915,-0.00002804,0.00026219,-0.00002166,-0.00012877,-0.00024
 062,0.00002253,-0.00000206,-0.00002059,0.00000745,0.00003767,0.0000056
 7,0.00010496,0.00028713,-0.00027692,0.00050728,-0.00006058,-0.00009965
 ,-0.00000943,-0.00001802,0.00003485,-0.00015684,-0.00002169,0.00001643
 ,0.00003901,0.00000384,0.00002578,0.00002291,0.00000954,0.00001727,-0.
 00002184,-0.00006075,0.00000923,-0.00000662,-0.00001300,-0.00000931,-0
 .00449976,0.00477488,-0.00133381,0.00076630,-0.00123390,-0.00116285,0.
 00000291,-0.00006942,0.00007691,0.00069314,0.00042151,0.00093584,0.000
 26788,-0.00072788,0.00008378,-0.00014824,0.00002856,-0.00000633,0.0000
 5033,0.00009386,0.00015559,-0.00008109,0.00002682,-0.00010139,-0.00003
 198,-0.00023609,-0.00002301,0.00004078,0.00000813,-0.00006142,0.000026
 66,0.00003762,0.00005400,-0.00000989,0.00006541,-0.00002276,0.00010787
 ,0.00000626,-0.00004299,-0.00004395,0.00002676,0.00004506,-0.00002321,
 0.00000211,0.00004237,0.00000425,-0.00002011,0.00001847,-0.00235000,0.
 01698092,0.02546932\\0.00000279,-0.00000637,0.00001814,0.00001049,0.00
 001347,-0.00000993,0.00000238,-0.00000169,-0.00000328,0.00000074,-0.00
 000105,-0.00000083,-0.00000060,-0.00000120,0.00000050,-0.00000088,-0.0
 0000129,-0.00000022,-0.00000384,-0.00000183,-0.00000366,0.00000063,-0.
 00000129,0.00000058,0.00000154,-0.00000103,0.00000065,0.00000103,-0.00
 000111,0.00000130,-0.00000070,0.00000643,0.00000074,-0.00000127,-0.000
 00288,-0.00000205,-0.00000061,-0.00000181,0.00000073,-0.00000176,-0.00
 000197,-0.00000032,-0.00000116,0.00000522,0.00000053,0.00000666,-0.000
 00307,0.00000174,0.00000107,0.00001746,-0.00000548,0.00000165,-0.00000
 695,-0.00000027,-0.00001554,-0.00000392,0.00000070,0.00000601,0.000003
 71,-0.00000033,-0.00000370,-0.00000838,0.00000550,0.00000242,0.0000030
 5,-0.00000064,-0.00000348,0.00000832,0.00000168,-0.00000008,-0.0000081
 9,0.00000395,0.00000185,0.00000318,-0.00000045,0.00000166,-0.00000606,
 -0.00000670,-0.00000754,0.00001283,0.00000463,0.00000299,0.00000015,-0
 .00000401,0.00000461,0.00000283,0.00000120,-0.00000034,0.00000243,0.00
 000065,-0.00000524,-0.00001126,0.00001264,-0.00001176,0.00000368,0.000
 00961,0.00000837,-0.00000073,-0.00000265,0.00001321,-0.00001087,-0.000
 01317,-0.00000211,0.00000883,0.00000136,-0.00000292,0.00000202,0.00000
 019,-0.00000533,0.00000503,0.00000571,0.00000921,-0.00000510,-0.000009
 30,-0.00000426,0.00000284,0.00000330,-0.00000653,0.00000298,0.00000153
 ,0.00000404,-0.00000025,0.00000062,-0.00000001,0.00000086,-0.00000011,
 0.00000100,0.00000194,-0.00000411,-0.00000027,0.00000119,0.00000438,0.
 00000117,0.00000082,0.00000192,0.00000073,0.00000036,-0.00000143,0.000
 00251,0.00000105,0.00000097,0.00000227,0.00000011,0.00000071,-0.000000
 78,0.00000154,0.00000050,-0.00000015,-0.00000042,-0.00000008,0.0000000
 8,-0.00000086,0.00000122,0.00000084,0.00000112,0.00000049,0.00000216,0
 .00000384,0.00000113,-0.00000080,0.,-0.00000070,0.00000007,0.00000169,
 0.00000033,0.00000203,0.00000436,-0.00000199,0.00000755,-0.00000051,-0
 .00000092,-0.00000095,-0.00000098,-0.00000028,0.00000046,0.00000161,-0
 .00000099,-0.00000133,0.00000053,-0.00000020,-0.00000106,0.00000106,-0
 .00000042,-0.00000853,-0.00000602,-0.00000673,-0.00000102,-0.00001025,
 -0.00000585,0.00000424,-0.00001350,0.00000285,-0.00001484,-0.00000347,
 0.00000033,0.00000351,-0.00000181,-0.00000125,-0.00000069,0.00000043,-
 0.00000034,-0.00000151,-0.00000127,-0.00000098,0.,-0.00000227,0.000000
 40,0.00000431,-0.00000203,0.00000074,-0.00000021,-0.00000097,0.0000000
 2,-0.00000008,-0.00000104,-0.00000121,0.00000005,-0.00000130,0.0000005
 0,-0.00000278,0.00000564,0.00000039,0.00000134,0.00000086,-0.00000114,
 -0.00000037,-0.00000111,-0.00000160,-0.00000011,-0.00000153,-0.0000002
 6,-0.00000253,0.00000419,-0.00000120\\\@


 WHEN HAVING A MEETING OF THE MINDS,
 MAKE SURE YOU HAVE THE EQUIPMENT FOR IT.
 Job cpu time:       0 days 12 hours  2 minutes 42.1 seconds.
 File lengths (MBytes):  RWF=   4477 Int=      0 D2E=      0 Chk=     37 Scr=      1
 Normal termination of Gaussian 09 at Fri May 19 11:23:02 2023.
