 Entering Gaussian System, Link 0=g09
 Input=AF50-helio.com
 Output=AF50-helio.log
 Initial command:
 /home/scr/programs/g09/l1.exe "/home/scr/helius/Gau-3102.inp" -scrdir="/home/scr/helius/"
 Entering Link 1 = /home/scr/programs/g09/l1.exe PID=      3104.
  
 Copyright (c) 1988,1990,1992,1993,1995,1998,2003,2009,2013,
            Gaussian, Inc.  All Rights Reserved.
  
 This is part of the Gaussian(R) 09 program.  It is based on
 the Gaussian(R) 03 system (copyright 2003, Gaussian, Inc.),
 the Gaussian(R) 98 system (copyright 1998, Gaussian, Inc.),
 the Gaussian(R) 94 system (copyright 1995, Gaussian, Inc.),
 the Gaussian 92(TM) system (copyright 1992, Gaussian, Inc.),
 the Gaussian 90(TM) system (copyright 1990, Gaussian, Inc.),
 the Gaussian 88(TM) system (copyright 1988, Gaussian, Inc.),
 the Gaussian 86(TM) system (copyright 1986, Carnegie Mellon
 University), and the Gaussian 82(TM) system (copyright 1983,
 Carnegie Mellon University). Gaussian is a federally registered
 trademark of Gaussian, Inc.
  
 This software contains proprietary and confidential information,
 including trade secrets, belonging to Gaussian, Inc.
  
 This software is provided under written license and may be
 used, copied, transmitted, or stored only in accord with that
 written license.
  
 The following legend is applicable only to US Government
 contracts under FAR:
  
                    RESTRICTED RIGHTS LEGEND
  
 Use, reproduction and disclosure by the US Government is
 subject to restrictions as set forth in subparagraphs (a)
 and (c) of the Commercial Computer Software - Restricted
 Rights clause in FAR 52.227-19.
  
 Gaussian, Inc.
 340 Quinnipiac St., Bldg. 40, Wallingford CT 06492
  
  
 ---------------------------------------------------------------
 Warning -- This program may not be used in any manner that
 competes with the business of Gaussian, Inc. or will provide
 assistance to any competitor of Gaussian, Inc.  The licensee
 of this program is prohibited from giving any competitor of
 Gaussian, Inc. access to this program.  By using this program,
 the user acknowledges that Gaussian, Inc. is engaged in the
 business of creating and licensing software in the field of
 computational chemistry and represents and warrants to the
 licensee that it is not a competitor of Gaussian, Inc. and that
 it will not use this program in any manner prohibited above.
 ---------------------------------------------------------------
  

 Cite this work as:
 Gaussian 09, Revision D.01,
 M. J. Frisch, G. W. Trucks, H. B. Schlegel, G. E. Scuseria, 
 M. A. Robb, J. R. Cheeseman, G. Scalmani, V. Barone, B. Mennucci, 
 G. A. Petersson, H. Nakatsuji, M. Caricato, X. Li, H. P. Hratchian, 
 A. F. Izmaylov, J. Bloino, G. Zheng, J. L. Sonnenberg, M. Hada, 
 M. Ehara, K. Toyota, R. Fukuda, J. Hasegawa, M. Ishida, T. Nakajima, 
 Y. Honda, O. Kitao, H. Nakai, T. Vreven, J. A. Montgomery, Jr., 
 J. E. Peralta, F. Ogliaro, M. Bearpark, J. J. Heyd, E. Brothers, 
 K. N. Kudin, V. N. Staroverov, T. Keith, R. Kobayashi, J. Normand, 
 K. Raghavachari, A. Rendell, J. C. Burant, S. S. Iyengar, J. Tomasi, 
 M. Cossi, N. Rega, J. M. Millam, M. Klene, J. E. Knox, J. B. Cross, 
 V. Bakken, C. Adamo, J. Jaramillo, R. Gomperts, R. E. Stratmann, 
 O. Yazyev, A. J. Austin, R. Cammi, C. Pomelli, J. W. Ochterski, 
 R. L. Martin, K. Morokuma, V. G. Zakrzewski, G. A. Voth, 
 P. Salvador, J. J. Dannenberg, S. Dapprich, A. D. Daniels, 
 O. Farkas, J. B. Foresman, J. V. Ortiz, J. Cioslowski, 
 and D. J. Fox, Gaussian, Inc., Wallingford CT, 2013.
 
 ******************************************
 Gaussian 09:  EM64L-G09RevD.01 24-Apr-2013
                12-May-2023 
 ******************************************
 %mem=30000MB
 %nprocshared=8
 Will use up to    8 processors via shared memory.
 ----------------------------------------
 # opt freq=noraman b3lyp/gen pseudo=read
 ----------------------------------------
 1/14=-1,18=20,19=15,26=3,38=1/1,3;
 2/9=110,12=2,17=6,18=5,40=1/2;
 3/5=7,11=2,16=1,17=8,25=1,30=1,71=1,74=-5/1,2,3;
 4//1;
 5/5=2,38=5/2;
 6/7=2,8=2,9=2,10=2,28=1/1;
 7//1,2,3,16;
 1/14=-1,18=20,19=15,26=3/3(2);
 2/9=110/2;
 99//99;
 2/9=110/2;
 3/5=7,6=1,11=2,16=1,17=8,25=1,30=1,71=1,74=-5,82=7/1,2,3;
 4/5=5,16=3,69=1/1;
 5/5=2,38=5/2;
 7//1,2,3,16;
 1/14=-1,18=20,19=15,26=3/3(-5);
 2/9=110/2;
 6/7=2,8=2,9=2,10=2,19=2,28=1/1;
 99/9=1/99;
 --
 af
 --
 Symbolic Z-matrix:
 Charge =  0 Multiplicity = 1
 Au                    1.1967   -0.00003  -0.01997 
 Cl                    3.53707  -0.00016   0.11673 
 P                    -1.06628   0.00002  -0.01961 
 N                    -1.79029  -0.00036   1.50125 
 N                    -1.67158  -1.40349  -0.67975 
 N                    -1.67137   1.40394  -0.67903 
 C                    -1.6295    1.20261   2.30804 
 H                    -2.37988   1.19451   3.10586 
 H                    -0.63248   1.25243   2.77381 
 H                    -1.77499   2.09817   1.70289 
 C                    -1.63016  -1.20391   2.30729 
 H                    -0.63298  -1.25486   2.7726 
 H                    -2.38015  -1.19553   3.10548 
 H                    -1.77678  -2.09904   1.7018 
 C                    -3.09016   1.7193   -0.65525 
 H                    -3.57782   1.45385  -1.60387 
 H                    -3.58775   1.18871   0.15852 
 H                    -3.22194   2.7965   -0.49384 
 C                    -0.93952   2.12963  -1.7002 
 H                    -1.33044   1.91758  -2.70558 
 H                    -1.02445   3.20834  -1.51888 
 H                     0.11967   1.85859  -1.67579 
 C                    -3.09041  -1.71868  -0.65613 
 H                    -3.22233  -2.79596  -0.49536 
 H                    -3.58792  -1.18849   0.15795 
 H                    -3.57805  -1.45258  -1.60457 
 C                    -0.93989  -2.12853  -1.70152 
 H                     0.1193   -1.85747  -1.67714 
 H                    -1.02474  -3.20736  -1.52087 
 H                    -1.33102  -1.91585  -2.70669 
 

 GradGradGradGradGradGradGradGradGradGradGradGradGradGradGradGradGradGrad
 Berny optimization.
 Initialization pass.
                           ----------------------------
                           !    Initial Parameters    !
                           ! (Angstroms and Degrees)  !
 --------------------------                            --------------------------
 ! Name  Definition              Value          Derivative Info.                !
 --------------------------------------------------------------------------------
 ! R1    R(1,2)                  2.3444         estimate D2E/DX2                !
 ! R2    R(1,3)                  2.263          estimate D2E/DX2                !
 ! R3    R(3,4)                  1.6844         estimate D2E/DX2                !
 ! R4    R(3,5)                  1.6649         estimate D2E/DX2                !
 ! R5    R(3,6)                  1.6649         estimate D2E/DX2                !
 ! R6    R(4,7)                  1.4574         estimate D2E/DX2                !
 ! R7    R(4,11)                 1.4574         estimate D2E/DX2                !
 ! R8    R(5,23)                 1.4536         estimate D2E/DX2                !
 ! R9    R(5,27)                 1.4509         estimate D2E/DX2                !
 ! R10   R(6,15)                 1.4536         estimate D2E/DX2                !
 ! R11   R(6,19)                 1.4509         estimate D2E/DX2                !
 ! R12   R(7,8)                  1.0953         estimate D2E/DX2                !
 ! R13   R(7,9)                  1.1016         estimate D2E/DX2                !
 ! R14   R(7,10)                 1.0906         estimate D2E/DX2                !
 ! R15   R(11,12)                1.1016         estimate D2E/DX2                !
 ! R16   R(11,13)                1.0953         estimate D2E/DX2                !
 ! R17   R(11,14)                1.0906         estimate D2E/DX2                !
 ! R18   R(15,16)                1.0992         estimate D2E/DX2                !
 ! R19   R(15,17)                1.0915         estimate D2E/DX2                !
 ! R20   R(15,18)                1.0972         estimate D2E/DX2                !
 ! R21   R(19,20)                1.0994         estimate D2E/DX2                !
 ! R22   R(19,21)                1.0971         estimate D2E/DX2                !
 ! R23   R(19,22)                1.0936         estimate D2E/DX2                !
 ! R24   R(23,24)                1.0972         estimate D2E/DX2                !
 ! R25   R(23,25)                1.0915         estimate D2E/DX2                !
 ! R26   R(23,26)                1.0992         estimate D2E/DX2                !
 ! R27   R(27,28)                1.0936         estimate D2E/DX2                !
 ! R28   R(27,29)                1.0971         estimate D2E/DX2                !
 ! R29   R(27,30)                1.0994         estimate D2E/DX2                !
 ! A1    A(1,3,4)              115.4662         estimate D2E/DX2                !
 ! A2    A(1,3,5)              111.3136         estimate D2E/DX2                !
 ! A3    A(1,3,6)              111.3087         estimate D2E/DX2                !
 ! A4    A(4,3,5)              101.627          estimate D2E/DX2                !
 ! A5    A(4,3,6)              101.63           estimate D2E/DX2                !
 ! A6    A(5,3,6)              114.9394         estimate D2E/DX2                !
 ! A7    A(3,4,7)              116.8868         estimate D2E/DX2                !
 ! A8    A(3,4,11)             116.894          estimate D2E/DX2                !
 ! A9    A(7,4,11)             111.3085         estimate D2E/DX2                !
 ! A10   A(3,5,23)             122.0863         estimate D2E/DX2                !
 ! A11   A(3,5,27)             121.1408         estimate D2E/DX2                !
 ! A12   A(23,5,27)            113.2865         estimate D2E/DX2                !
 ! A13   A(3,6,15)             122.0862         estimate D2E/DX2                !
 ! A14   A(3,6,19)             121.145          estimate D2E/DX2                !
 ! A15   A(15,6,19)            113.2872         estimate D2E/DX2                !
 ! A16   A(4,7,8)              108.757          estimate D2E/DX2                !
 ! A17   A(4,7,9)              111.7933         estimate D2E/DX2                !
 ! A18   A(4,7,10)             110.8509         estimate D2E/DX2                !
 ! A19   A(8,7,9)              108.2044         estimate D2E/DX2                !
 ! A20   A(8,7,10)             108.5941         estimate D2E/DX2                !
 ! A21   A(9,7,10)             108.5554         estimate D2E/DX2                !
 ! A22   A(4,11,12)            111.7949         estimate D2E/DX2                !
 ! A23   A(4,11,13)            108.7534         estimate D2E/DX2                !
 ! A24   A(4,11,14)            110.8544         estimate D2E/DX2                !
 ! A25   A(12,11,13)           108.2023         estimate D2E/DX2                !
 ! A26   A(12,11,14)           108.5577         estimate D2E/DX2                !
 ! A27   A(13,11,14)           108.5921         estimate D2E/DX2                !
 ! A28   A(6,15,16)            111.5016         estimate D2E/DX2                !
 ! A29   A(6,15,17)            110.591          estimate D2E/DX2                !
 ! A30   A(6,15,18)            109.4295         estimate D2E/DX2                !
 ! A31   A(16,15,17)           108.8922         estimate D2E/DX2                !
 ! A32   A(16,15,18)           108.1067         estimate D2E/DX2                !
 ! A33   A(17,15,18)           108.2296         estimate D2E/DX2                !
 ! A34   A(6,19,20)            111.581          estimate D2E/DX2                !
 ! A35   A(6,19,21)            109.6584         estimate D2E/DX2                !
 ! A36   A(6,19,22)            110.419          estimate D2E/DX2                !
 ! A37   A(20,19,21)           108.2553         estimate D2E/DX2                !
 ! A38   A(20,19,22)           108.4828         estimate D2E/DX2                !
 ! A39   A(21,19,22)           108.3591         estimate D2E/DX2                !
 ! A40   A(5,23,24)            109.429          estimate D2E/DX2                !
 ! A41   A(5,23,25)            110.5915         estimate D2E/DX2                !
 ! A42   A(5,23,26)            111.5016         estimate D2E/DX2                !
 ! A43   A(24,23,25)           108.2307         estimate D2E/DX2                !
 ! A44   A(24,23,26)           108.1076         estimate D2E/DX2                !
 ! A45   A(25,23,26)           108.89           estimate D2E/DX2                !
 ! A46   A(5,27,28)            110.4185         estimate D2E/DX2                !
 ! A47   A(5,27,29)            109.6592         estimate D2E/DX2                !
 ! A48   A(5,27,30)            111.5799         estimate D2E/DX2                !
 ! A49   A(28,27,29)           108.3585         estimate D2E/DX2                !
 ! A50   A(28,27,30)           108.4833         estimate D2E/DX2                !
 ! A51   A(29,27,30)           108.2562         estimate D2E/DX2                !
 ! A52   L(2,1,3,22,-1)        182.2064         estimate D2E/DX2                !
 ! A53   L(2,1,3,22,-2)        182.7731         estimate D2E/DX2                !
 ! D1    D(1,3,4,7)             67.7679         estimate D2E/DX2                !
 ! D2    D(1,3,4,11)           -67.7943         estimate D2E/DX2                !
 ! D3    D(5,3,4,7)           -171.6338         estimate D2E/DX2                !
 ! D4    D(5,3,4,11)            52.804          estimate D2E/DX2                !
 ! D5    D(6,3,4,7)            -52.8265         estimate D2E/DX2                !
 ! D6    D(6,3,4,11)           171.6113         estimate D2E/DX2                !
 ! D7    D(1,3,5,23)           172.7535         estimate D2E/DX2                !
 ! D8    D(1,3,5,27)           -29.7312         estimate D2E/DX2                !
 ! D9    D(4,3,5,23)            49.2839         estimate D2E/DX2                !
 ! D10   D(4,3,5,27)          -153.2008         estimate D2E/DX2                !
 ! D11   D(6,3,5,23)           -59.5401         estimate D2E/DX2                !
 ! D12   D(6,3,5,27)            97.9752         estimate D2E/DX2                !
 ! D13   D(1,3,6,15)          -172.7512         estimate D2E/DX2                !
 ! D14   D(1,3,6,19)            29.7186         estimate D2E/DX2                !
 ! D15   D(4,3,6,15)           -49.2823         estimate D2E/DX2                !
 ! D16   D(4,3,6,19)           153.1875         estimate D2E/DX2                !
 ! D17   D(5,3,6,15)            59.5399         estimate D2E/DX2                !
 ! D18   D(5,3,6,19)           -97.9903         estimate D2E/DX2                !
 ! D19   D(3,4,7,8)            162.7977         estimate D2E/DX2                !
 ! D20   D(3,4,7,9)            -77.789          estimate D2E/DX2                !
 ! D21   D(3,4,7,10)            43.4777         estimate D2E/DX2                !
 ! D22   D(11,4,7,8)           -59.2871         estimate D2E/DX2                !
 ! D23   D(11,4,7,9)            60.1261         estimate D2E/DX2                !
 ! D24   D(11,4,7,10)         -178.6071         estimate D2E/DX2                !
 ! D25   D(3,4,11,12)           77.7543         estimate D2E/DX2                !
 ! D26   D(3,4,11,13)         -162.8363         estimate D2E/DX2                !
 ! D27   D(3,4,11,14)          -43.5189         estimate D2E/DX2                !
 ! D28   D(7,4,11,12)          -60.1575         estimate D2E/DX2                !
 ! D29   D(7,4,11,13)           59.2518         estimate D2E/DX2                !
 ! D30   D(7,4,11,14)          178.5693         estimate D2E/DX2                !
 ! D31   D(3,5,23,24)         -142.822          estimate D2E/DX2                !
 ! D32   D(3,5,23,25)          -23.6852         estimate D2E/DX2                !
 ! D33   D(3,5,23,26)           97.6285         estimate D2E/DX2                !
 ! D34   D(27,5,23,24)          58.0546         estimate D2E/DX2                !
 ! D35   D(27,5,23,25)         177.1914         estimate D2E/DX2                !
 ! D36   D(27,5,23,26)         -61.4949         estimate D2E/DX2                !
 ! D37   D(3,5,27,28)           20.7044         estimate D2E/DX2                !
 ! D38   D(3,5,27,29)          140.0366         estimate D2E/DX2                !
 ! D39   D(3,5,27,30)         -100.0274         estimate D2E/DX2                !
 ! D40   D(23,5,27,28)        -179.9515         estimate D2E/DX2                !
 ! D41   D(23,5,27,29)         -60.6194         estimate D2E/DX2                !
 ! D42   D(23,5,27,30)          59.3166         estimate D2E/DX2                !
 ! D43   D(3,6,15,16)          -97.6346         estimate D2E/DX2                !
 ! D44   D(3,6,15,17)           23.6815         estimate D2E/DX2                !
 ! D45   D(3,6,15,18)          142.8168         estimate D2E/DX2                !
 ! D46   D(19,6,15,16)          61.5034         estimate D2E/DX2                !
 ! D47   D(19,6,15,17)        -177.1805         estimate D2E/DX2                !
 ! D48   D(19,6,15,18)         -58.0452         estimate D2E/DX2                !
 ! D49   D(3,6,19,20)          100.0268         estimate D2E/DX2                !
 ! D50   D(3,6,19,21)         -140.0381         estimate D2E/DX2                !
 ! D51   D(3,6,19,22)          -20.7055         estimate D2E/DX2                !
 ! D52   D(15,6,19,20)         -59.3307         estimate D2E/DX2                !
 ! D53   D(15,6,19,21)          60.6044         estimate D2E/DX2                !
 ! D54   D(15,6,19,22)         179.937          estimate D2E/DX2                !
 --------------------------------------------------------------------------------
 Trust Radius=3.00D-01 FncErr=1.00D-07 GrdErr=1.00D-06
 Number of steps in this run=    146 maximum allowed number of steps=    180.
 GradGradGradGradGradGradGradGradGradGradGradGradGradGradGradGradGradGrad

                          Input orientation:                          
 ---------------------------------------------------------------------
 Center     Atomic      Atomic             Coordinates (Angstroms)
 Number     Number       Type             X           Y           Z
 ---------------------------------------------------------------------
      1         79           0        1.196700   -0.000029   -0.019966
      2         17           0        3.537066   -0.000158    0.116730
      3         15           0       -1.066280    0.000022   -0.019606
      4          7           0       -1.790294   -0.000363    1.501253
      5          7           0       -1.671576   -1.403492   -0.679750
      6          7           0       -1.671373    1.403936   -0.679032
      7          6           0       -1.629503    1.202613    2.308035
      8          1           0       -2.379876    1.194515    3.105855
      9          1           0       -0.632483    1.252428    2.773814
     10          1           0       -1.774988    2.098168    1.702891
     11          6           0       -1.630159   -1.203913    2.307290
     12          1           0       -0.632978   -1.254857    2.772603
     13          1           0       -2.380146   -1.195528    3.105477
     14          1           0       -1.776776   -2.099036    1.701801
     15          6           0       -3.090156    1.719301   -0.655254
     16          1           0       -3.577819    1.453848   -1.603873
     17          1           0       -3.587746    1.188714    0.158515
     18          1           0       -3.221939    2.796500   -0.493841
     19          6           0       -0.939516    2.129630   -1.700197
     20          1           0       -1.330442    1.917580   -2.705579
     21          1           0       -1.024453    3.208343   -1.518883
     22          1           0        0.119674    1.858593   -1.675785
     23          6           0       -3.090406   -1.718677   -0.656129
     24          1           0       -3.222325   -2.795956   -0.495355
     25          1           0       -3.587920   -1.188490    0.157949
     26          1           0       -3.578055   -1.452578   -1.604572
     27          6           0       -0.939886   -2.128532   -1.701521
     28          1           0        0.119299   -1.857473   -1.677137
     29          1           0       -1.024740   -3.207363   -1.520872
     30          1           0       -1.331022   -1.915846   -2.706687
 ---------------------------------------------------------------------
                    Distance matrix (angstroms):
                    1          2          3          4          5
     1  Au   0.000000
     2  Cl   2.344355   0.000000
     3  P    2.262980   4.605364   0.000000
     4  N    3.352050   5.504332   1.684402   0.000000
     5  N    3.260679   5.452860   1.664940   2.596081   0.000000
     6  N    3.260572   5.452757   1.664919   2.596120   2.807428
     7  C    3.854006   5.739504   2.679806   1.457361   3.964898
     8  H    4.897917   6.735897   3.594559   2.085686   4.645658
     9  H    3.566478   5.100412   3.091908   2.128244   4.478921
    10  H    4.025121   5.927630   2.805616   2.108252   4.236661
    11  C    3.854425   5.740017   2.679900   1.457351   2.993986
    12  H    3.566617   5.100706   3.091748   2.128254   3.608257
    13  H    4.898106   6.736091   3.594680   2.085636   3.856587
    14  H    4.026397   5.929136   2.806081   2.108277   2.483271
    15  C    4.662276   6.890034   2.730576   3.049165   3.429986
    16  H    5.236273   7.462988   3.306258   3.866754   3.556987
    17  H    4.933142   7.223442   2.793297   2.539229   3.330755
    18  H    5.250667   7.340180   3.562591   3.721888   4.480862
    19  C    3.452831   5.279868   2.715821   3.938271   3.749690
    20  H    4.156463   5.944391   3.310780   4.646225   3.905109
    21  H    4.180182   5.811812   3.541596   4.472530   4.732012
    22  H    2.712231   4.283297   2.757481   4.146959   3.852514
    23  C    4.662374   6.890138   2.730600   3.049130   1.453609
    24  H    5.250808   7.340334   3.562634   3.721894   2.092315
    25  H    4.933222   7.223521   2.793341   2.539207   2.102460
    26  H    5.236331   7.463066   3.306233   3.866674   2.119521
    27  C    3.452992   5.280067   2.715797   3.938281   1.450886
    28  H    2.712399   4.283539   2.757407   4.146995   2.099551
    29  H    4.180252   5.811883   3.541588   4.472601   2.092805
    30  H    4.156706   5.944731   3.310747   4.646156   2.118244
                    6          7          8          9         10
     6  N    0.000000
     7  C    2.994136   0.000000
     8  H    3.856320   1.095282   0.000000
     9  H    3.608932   1.101581   1.779603   0.000000
    10  H    2.483194   1.090589   1.775045   1.779739   0.000000
    11  C    3.964933   2.406526   2.636710   2.691953   3.360061
    12  H    4.478976   2.692219   3.026902   2.507285   3.700169
    13  H    4.645652   2.636372   2.390043   3.026023   3.630688
    14  H    4.236778   3.360074   3.630782   3.700126   4.197205
    15  C    1.453604   3.343883   3.863397   4.244601   2.726546
    16  H    2.119518   4.377451   4.866607   5.280125   3.820999
    17  H    2.102449   2.907808   3.185247   3.946825   2.549175
    18  H    2.092316   3.595391   4.029049   4.446011   2.721574
    19  C    1.450870   4.171494   5.103647   4.569522   3.504285
    20  H    2.118244   5.073159   5.949529   5.563571   4.434506
    21  H    2.092783   4.362836   5.223110   4.733550   3.489358
    22  H    2.099543   4.400085   5.436252   4.553252   3.881055
    23  C    3.429999   4.410719   4.810828   5.160752   4.675853
    24  H    4.480880   5.136597   5.440799   5.812414   5.556934
    25  H    3.330820   3.765055   3.978471   4.640629   4.059026
    26  H    3.556927   5.114234   5.534515   5.929900   5.176694
    27  C    3.749518   5.258197   6.018893   5.617296   5.491121
    28  H    3.852208   5.320153   6.199800   5.481571   5.537148
    29  H    4.731903   5.871470   6.528363   6.203864   6.253333
    30  H    3.904891   5.912809   6.675334   6.368815   5.979447
                   11         12         13         14         15
    11  C    0.000000
    12  H    1.101581   0.000000
    13  H    1.095287   1.779585   0.000000
    14  H    1.090577   1.779755   1.775018   0.000000
    15  C    4.410605   5.160770   4.810763   4.675508   0.000000
    16  H    5.114124   5.929816   5.534581   5.176313   1.099163
    17  H    3.764843   4.640598   3.978378   4.058404   1.091484
    18  H    5.136478   5.812561   5.440588   5.556583   1.097168
    19  C    5.258274   5.617353   6.018853   5.491467   2.426011
    20  H    5.912902   6.368775   6.675454   5.979751   2.709196
    21  H    5.871497   6.204052   6.528146   6.253564   2.688909
    22  H    5.320314   5.481625   6.199776   5.537819   3.371038
    23  C    3.343524   4.243853   3.863656   2.725827   3.437978
    24  H    3.595054   4.445138   4.029470   2.720809   4.520020
    25  H    2.907358   3.946201   3.185387   2.548100   3.060117
    26  H    4.377076   5.279416   4.866788   3.820290   3.346650
    27  C    4.171566   4.568948   5.104123   3.504833   4.530359
    28  H    4.400387   4.552939   5.436800   3.882097   4.913060
    29  H    4.362931   4.732831   5.223764   3.489924   5.411770
    30  H    5.073095   5.562984   5.949855   4.434752   4.529594
                   16         17         18         19         20
    16  H    0.000000
    17  H    1.782247   0.000000
    18  H    1.778071   1.773234   0.000000
    19  C    2.725179   3.369459   2.666358   0.000000
    20  H    2.545488   3.718831   3.040073   1.099355   0.000000
    21  H    3.099218   3.669201   2.459526   1.097138   1.779872
    22  H    3.720275   4.190269   3.666475   1.093591   1.779548
    23  C    3.346745   3.060051   4.520007   4.530549   4.529910
    24  H    4.406362   4.054463   5.592456   5.560958   5.539109
    25  H    3.175857   2.377204   4.054494   4.634293   4.789955
    26  H    2.906426   3.175688   4.406269   4.450084   4.197850
    27  C    4.449907   4.634115   5.560773   4.258162   4.187086
    28  H    4.963758   5.137223   5.850088   4.125362   4.172585
    29  H    5.315260   5.358622   6.475249   5.340685   5.268968
    30  H    4.197515   4.789622   5.538814   4.187144   3.833426
                   21         22         23         24         25
    21  H    0.000000
    22  H    1.776364   0.000000
    23  C    5.411842   4.913367   0.000000
    24  H    6.475327   5.850402   1.097170   0.000000
    25  H    5.358663   5.137465   1.091486   1.773249   0.000000
    26  H    5.315300   4.964083   1.099161   1.778081   1.782223
    27  C    5.340669   4.125590   2.426018   2.666424   3.369479
    28  H    5.195739   3.716066   3.371043   3.666580   4.190293
    29  H    6.415706   5.195921   2.689041   2.459740   3.669357
    30  H    5.268982   4.172969   2.709077   3.040002   3.718706
                   26         27         28         29         30
    26  H    0.000000
    27  C    2.725114   0.000000
    28  H    3.720166   1.093591   0.000000
    29  H    3.099305   1.097137   1.776358   0.000000
    30  H    2.545276   1.099355   1.779554   1.779883   0.000000
 Stoichiometry    C6H18AuClN3P
 Framework group  C1[X(C6H18AuClN3P)]
 Deg. of freedom    84
 Full point group                 C1      NOp   1
 Largest Abelian subgroup         C1      NOp   1
 Largest concise Abelian subgroup C1      NOp   1
                         Standard orientation:                         
 ---------------------------------------------------------------------
 Center     Atomic      Atomic             Coordinates (Angstroms)
 Number     Number       Type             X           Y           Z
 ---------------------------------------------------------------------
      1         79           0        1.196700   -0.000029   -0.019966
      2         17           0        3.537066   -0.000158    0.116730
      3         15           0       -1.066280    0.000022   -0.019606
      4          7           0       -1.790294   -0.000363    1.501253
      5          7           0       -1.671576   -1.403492   -0.679750
      6          7           0       -1.671373    1.403936   -0.679032
      7          6           0       -1.629503    1.202613    2.308035
      8          1           0       -2.379876    1.194515    3.105855
      9          1           0       -0.632483    1.252428    2.773814
     10          1           0       -1.774988    2.098168    1.702891
     11          6           0       -1.630159   -1.203913    2.307290
     12          1           0       -0.632978   -1.254857    2.772603
     13          1           0       -2.380146   -1.195528    3.105477
     14          1           0       -1.776776   -2.099036    1.701801
     15          6           0       -3.090156    1.719301   -0.655254
     16          1           0       -3.577819    1.453848   -1.603873
     17          1           0       -3.587746    1.188714    0.158515
     18          1           0       -3.221939    2.796500   -0.493841
     19          6           0       -0.939516    2.129630   -1.700197
     20          1           0       -1.330442    1.917580   -2.705579
     21          1           0       -1.024453    3.208343   -1.518883
     22          1           0        0.119674    1.858593   -1.675785
     23          6           0       -3.090406   -1.718677   -0.656129
     24          1           0       -3.222325   -2.795956   -0.495355
     25          1           0       -3.587920   -1.188490    0.157949
     26          1           0       -3.578055   -1.452578   -1.604572
     27          6           0       -0.939886   -2.128532   -1.701521
     28          1           0        0.119299   -1.857473   -1.677137
     29          1           0       -1.024740   -3.207363   -1.520872
     30          1           0       -1.331022   -1.915846   -2.706687
 ---------------------------------------------------------------------
 Rotational constants (GHZ):      0.7579835      0.3167421      0.3131449
 General basis read from cards:  (5D, 7F)
 ======================================================================================================
                                       Pseudopotential Parameters
 ======================================================================================================
  Center     Atomic      Valence      Angular      Power
  Number     Number     Electrons     Momentum     of R      Exponent        Coefficient   SO-Coeffient
 ======================================================================================================
    1         79           19
                                      G and up 
                                                     1      622.6287956      -60.00000000    0.00000000
                                                     2      136.2843607     -555.52923120    0.00000000
                                                     2       33.1549781     -168.00197850    0.00000000
                                                     2        9.9894895      -63.03998750    0.00000000
                                                     2        3.0481312       -4.25166810    0.00000000
                                      S - G
                                                     0      194.7374304        3.00000000    0.00000000
                                                     1      351.5327447       38.60208800    0.00000000
                                                     2      122.3270402      864.83707270    0.00000000
                                                     2       32.0914617      374.99355200    0.00000000
                                                     2        5.2451812      289.79101000    0.00000000
                                                     2        4.4916223     -152.45327730    0.00000000
                                      P - G
                                                     0      420.6158801        2.00000000    0.00000000
                                                     1      109.4417815       73.88856250    0.00000000
                                                     2       34.1714280      326.67298720    0.00000000
                                                     2        5.9879750      126.58145910    0.00000000
                                      D - G
                                                     0      219.2666158        3.00000000    0.00000000
                                                     1      122.7297786       55.67931490    0.00000000
                                                     2       63.1063369      449.19873350    0.00000000
                                                     2       18.3684520      215.02690910    0.00000000
                                                     2        4.4972844       64.08409950    0.00000000
                                      F - G
                                                     0      108.5506037        4.00000000    0.00000000
                                                     1       56.4795527       51.80653350    0.00000000
                                                     2       29.2069159      231.21831130    0.00000000
                                                     2        9.5440543      119.00473860    0.00000000
                                                     2        2.8965118       15.34241880    0.00000000
    2         17
                                   No pseudopotential on this center.
    3         15
                                   No pseudopotential on this center.
    4          7
                                   No pseudopotential on this center.
    5          7
                                   No pseudopotential on this center.
    6          7
                                   No pseudopotential on this center.
    7          6
                                   No pseudopotential on this center.
    8          1
                                   No pseudopotential on this center.
    9          1
                                   No pseudopotential on this center.
   10          1
                                   No pseudopotential on this center.
   11          6
                                   No pseudopotential on this center.
   12          1
                                   No pseudopotential on this center.
   13          1
                                   No pseudopotential on this center.
   14          1
                                   No pseudopotential on this center.
   15          6
                                   No pseudopotential on this center.
   16          1
                                   No pseudopotential on this center.
   17          1
                                   No pseudopotential on this center.
   18          1
                                   No pseudopotential on this center.
   19          6
                                   No pseudopotential on this center.
   20          1
                                   No pseudopotential on this center.
   21          1
                                   No pseudopotential on this center.
   22          1
                                   No pseudopotential on this center.
   23          6
                                   No pseudopotential on this center.
   24          1
                                   No pseudopotential on this center.
   25          1
                                   No pseudopotential on this center.
   26          1
                                   No pseudopotential on this center.
   27          6
                                   No pseudopotential on this center.
   28          1
                                   No pseudopotential on this center.
   29          1
                                   No pseudopotential on this center.
   30          1
                                   No pseudopotential on this center.
 ======================================================================================================
 There are   257 symmetry adapted cartesian basis functions of A   symmetry.
 There are   240 symmetry adapted basis functions of A   symmetry.
   240 basis functions,   476 primitive gaussians,   257 cartesian basis functions
    63 alpha electrons       63 beta electrons
       nuclear repulsion energy      1224.1268158103 Hartrees.
 NAtoms=   30 NActive=   30 NUniq=   30 SFac= 1.00D+00 NAtFMM=   60 NAOKFM=F Big=F
 Integral buffers will be    131072 words long.
 Raffenetti 2 integral format.
 Two-electron integral symmetry is turned on.
 One-electron integrals computed using PRISM.
   1 Symmetry operations used in ECPInt.
 ECPInt:  NShTT=    4656 NPrTT=   24372 LenC2=    4484 LenP2D=   15456.
 LDataN:  DoStor=T MaxTD1= 7 Len=  274
 NBasis=   240 RedAO= T EigKep=  2.21D-03  NBF=   240
 NBsUse=   240 1.00D-06 EigRej= -1.00D+00 NBFU=   240
 Defaulting to unpruned grid for atomic number  79.
 ExpMin= 2.79D-02 ExpMax= 2.52D+04 ExpMxC= 3.78D+03 IAcc=3 IRadAn=         5 AccDes= 0.00D+00
 Harris functional with IExCor=  402 and IRadAn=       5 diagonalized for initial guess.
 HarFok:  IExCor=  402 AccDes= 0.00D+00 IRadAn=         5 IDoV= 1 UseB2=F ITyADJ=14
 ICtDFT=  3500011 ScaDFX=  1.000000  1.000000  1.000000  1.000000
 Defaulting to unpruned grid for atomic number  79.
 Defaulting to unpruned grid for atomic number  79.
 Defaulting to unpruned grid for atomic number  79.
 Defaulting to unpruned grid for atomic number  79.
 Defaulting to unpruned grid for atomic number  79.
 Defaulting to unpruned grid for atomic number  79.
 Defaulting to unpruned grid for atomic number  79.
 Defaulting to unpruned grid for atomic number  79.
 FoFCou: FMM=F IPFlag=           0 FMFlag=      100000 FMFlg1=           0
         NFxFlg=           0 DoJE=T BraDBF=F KetDBF=T FulRan=T
         wScrn=  0.000000 ICntrl=     500 IOpCl=  0 I1Cent=   200000004 NGrid=           0
         NMat0=    1 NMatS0=      1 NMatT0=    0 NMatD0=    1 NMtDS0=    0 NMtDT0=    0
 Petite list used in FoFCou.
 Keep R1 ints in memory in canonical form, NReq=427004978.
 Requested convergence on RMS density matrix=1.00D-08 within 128 cycles.
 Requested convergence on MAX density matrix=1.00D-06.
 Requested convergence on             energy=1.00D-06.
 No special actions if energy rises.
 Defaulting to unpruned grid for atomic number  79.
 Defaulting to unpruned grid for atomic number  79.
 Defaulting to unpruned grid for atomic number  79.
 Defaulting to unpruned grid for atomic number  79.
 Defaulting to unpruned grid for atomic number  79.
 Defaulting to unpruned grid for atomic number  79.
 Defaulting to unpruned grid for atomic number  79.
 Defaulting to unpruned grid for atomic number  79.
 SCF Done:  E(RB3LYP) =  -1340.83084689     A.U. after   13 cycles
            NFock= 13  Conv=0.58D-08     -V/T= 2.0777

 **********************************************************************

            Population analysis using the SCF density.

 **********************************************************************

 Orbital symmetries:
       Occupied  (A) (A) (A) (A) (A) (A) (A) (A) (A) (A) (A) (A)
                 (A) (A) (A) (A) (A) (A) (A) (A) (A) (A) (A) (A)
                 (A) (A) (A) (A) (A) (A) (A) (A) (A) (A) (A) (A)
                 (A) (A) (A) (A) (A) (A) (A) (A) (A) (A) (A) (A)
                 (A) (A) (A) (A) (A) (A) (A) (A) (A) (A) (A) (A)
                 (A) (A) (A)
       Virtual   (A) (A) (A) (A) (A) (A) (A) (A) (A) (A) (A) (A)
                 (A) (A) (A) (A) (A) (A) (A) (A) (A) (A) (A) (A)
                 (A) (A) (A) (A) (A) (A) (A) (A) (A) (A) (A) (A)
                 (A) (A) (A) (A) (A) (A) (A) (A) (A) (A) (A) (A)
                 (A) (A) (A) (A) (A) (A) (A) (A) (A) (A) (A) (A)
                 (A) (A) (A) (A) (A) (A) (A) (A) (A) (A) (A) (A)
                 (A) (A) (A) (A) (A) (A) (A) (A) (A) (A) (A) (A)
                 (A) (A) (A) (A) (A) (A) (A) (A) (A) (A) (A) (A)
                 (A) (A) (A) (A) (A) (A) (A) (A) (A) (A) (A) (A)
                 (A) (A) (A) (A) (A) (A) (A) (A) (A) (A) (A) (A)
                 (A) (A) (A) (A) (A) (A) (A) (A) (A) (A) (A) (A)
                 (A) (A) (A) (A) (A) (A) (A) (A) (A) (A) (A) (A)
                 (A) (A) (A) (A) (A) (A) (A) (A) (A) (A) (A) (A)
                 (A) (A) (A) (A) (A) (A) (A) (A) (A) (A) (A) (A)
                 (A) (A) (A) (A) (A) (A) (A) (A) (A)
 The electronic state is 1-A.
 Alpha  occ. eigenvalues -- -101.44234 -77.17637 -14.35633 -14.35633 -14.35514
 Alpha  occ. eigenvalues --  -10.22721 -10.22720 -10.22004 -10.22003 -10.21864
 Alpha  occ. eigenvalues --  -10.21861  -9.37315  -7.13326  -7.12820  -7.12816
 Alpha  occ. eigenvalues --   -6.64456  -4.80732  -4.80659  -4.80447  -4.16586
 Alpha  occ. eigenvalues --   -2.31279  -2.29101  -2.29070  -0.97818  -0.93348
 Alpha  occ. eigenvalues --   -0.92699  -0.74069  -0.73644  -0.73598  -0.72672
 Alpha  occ. eigenvalues --   -0.72477  -0.65826  -0.64908  -0.57565  -0.52337
 Alpha  occ. eigenvalues --   -0.52214  -0.50726  -0.48558  -0.48200  -0.47296
 Alpha  occ. eigenvalues --   -0.45980  -0.45745  -0.44392  -0.41990  -0.41506
 Alpha  occ. eigenvalues --   -0.41148  -0.40995  -0.40102  -0.39841  -0.39318
 Alpha  occ. eigenvalues --   -0.38957  -0.38898  -0.33815  -0.33409  -0.30691
 Alpha  occ. eigenvalues --   -0.30129  -0.29952  -0.27987  -0.26560  -0.24679
 Alpha  occ. eigenvalues --   -0.24430  -0.23536  -0.23492
 Alpha virt. eigenvalues --   -0.00944  -0.00095   0.01710   0.03810   0.05850
 Alpha virt. eigenvalues --    0.06225   0.07890   0.09092   0.10093   0.10591
 Alpha virt. eigenvalues --    0.11863   0.12007   0.12020   0.13226   0.13587
 Alpha virt. eigenvalues --    0.14205   0.14935   0.14991   0.16086   0.16494
 Alpha virt. eigenvalues --    0.16877   0.17631   0.17850   0.18294   0.19141
 Alpha virt. eigenvalues --    0.19520   0.19756   0.21257   0.22173   0.22251
 Alpha virt. eigenvalues --    0.23517   0.25128   0.25995   0.29172   0.32241
 Alpha virt. eigenvalues --    0.33799   0.37976   0.38932   0.41001   0.42445
 Alpha virt. eigenvalues --    0.44803   0.46857   0.47515   0.49754   0.50623
 Alpha virt. eigenvalues --    0.50644   0.52483   0.53771   0.54148   0.56823
 Alpha virt. eigenvalues --    0.57467   0.58119   0.58414   0.61371   0.61431
 Alpha virt. eigenvalues --    0.62211   0.63707   0.64877   0.66773   0.67681
 Alpha virt. eigenvalues --    0.69660   0.70442   0.72002   0.73494   0.74561
 Alpha virt. eigenvalues --    0.78196   0.78490   0.78590   0.80073   0.80886
 Alpha virt. eigenvalues --    0.82591   0.82690   0.84950   0.85656   0.87654
 Alpha virt. eigenvalues --    0.87815   0.88834   0.89433   0.90829   0.91111
 Alpha virt. eigenvalues --    0.91548   0.92886   0.93535   0.94724   0.95435
 Alpha virt. eigenvalues --    0.95718   0.95784   0.97667   0.99313   0.99542
 Alpha virt. eigenvalues --    1.00194   1.00534   1.02032   1.02395   1.03532
 Alpha virt. eigenvalues --    1.04923   1.06389   1.06955   1.12338   1.14659
 Alpha virt. eigenvalues --    1.16835   1.17306   1.22012   1.23898   1.27500
 Alpha virt. eigenvalues --    1.28178   1.36550   1.41320   1.42086   1.42586
 Alpha virt. eigenvalues --    1.45033   1.47564   1.49598   1.55498   1.58149
 Alpha virt. eigenvalues --    1.62523   1.63661   1.77662   1.82609   1.83689
 Alpha virt. eigenvalues --    1.83985   1.86013   1.89105   1.91355   1.92387
 Alpha virt. eigenvalues --    1.95470   1.96553   1.98075   1.98130   1.99440
 Alpha virt. eigenvalues --    1.99464   2.00624   2.00709   2.01257   2.01329
 Alpha virt. eigenvalues --    2.01724   2.02395   2.03808   2.04527   2.05147
 Alpha virt. eigenvalues --    2.06891   2.07488   2.08894   2.08930   2.09376
 Alpha virt. eigenvalues --    2.10239   2.10478   2.11206   2.13134   2.15977
 Alpha virt. eigenvalues --    2.18746   2.20256   2.21870   2.22608   2.22829
 Alpha virt. eigenvalues --    2.25726   2.26137   2.31097   2.35168   2.41577
 Alpha virt. eigenvalues --    2.42265   2.43274   2.44104   2.49932   2.53457
 Alpha virt. eigenvalues --    2.57009   2.58738   2.61796   2.63019   2.68506
 Alpha virt. eigenvalues --    2.70005   2.73009   2.80463  15.60679  15.61355
 Alpha virt. eigenvalues --   15.68730  43.15822
          Condensed to atoms (all electrons):
               1          2          3          4          5          6
     1  Au  18.531395   0.259800   0.358859  -0.034155  -0.033581  -0.033604
     2  Cl   0.259800  17.130516   0.001724   0.000038   0.000020   0.000020
     3  P    0.358859   0.001724  13.208437   0.273264   0.274762   0.274749
     4  N   -0.034155   0.000038   0.273264   6.970993  -0.044125  -0.044112
     5  N   -0.033581   0.000020   0.274762  -0.044125   6.960491  -0.045090
     6  N   -0.033604   0.000020   0.274749  -0.044112  -0.045090   6.960487
     7  C    0.001530  -0.000013  -0.036859   0.320016   0.001632  -0.006260
     8  H   -0.002517   0.000000   0.003236  -0.041348  -0.000049   0.000346
     9  H    0.013200  -0.000063  -0.006855  -0.048131  -0.000072  -0.000340
    10  H   -0.001781  -0.000003  -0.004912  -0.033985   0.000084   0.007504
    11  C    0.001528  -0.000013  -0.036851   0.320011  -0.006232   0.001632
    12  H    0.013201  -0.000063  -0.006857  -0.048127  -0.000341  -0.000072
    13  H   -0.002516   0.000000   0.003240  -0.041347   0.000347  -0.000049
    14  H   -0.001777  -0.000003  -0.004920  -0.033989   0.007480   0.000084
    15  C    0.003998   0.000000  -0.023192  -0.008007  -0.000187   0.297593
    16  H    0.000356   0.000000  -0.004207   0.000077   0.001324  -0.047681
    17  H    0.000167   0.000000  -0.003298   0.011991  -0.001188  -0.035592
    18  H   -0.000387   0.000000  -0.000031   0.000082  -0.000151  -0.043272
    19  C    0.000621  -0.000100  -0.053123   0.001392   0.000181   0.331315
    20  H    0.001290  -0.000001  -0.002033  -0.000072   0.000724  -0.050798
    21  H   -0.000087  -0.000001   0.000792  -0.000049  -0.000115  -0.044561
    22  H    0.013755  -0.000043  -0.013461   0.000116   0.000035  -0.029108
    23  C    0.003996   0.000000  -0.023193  -0.008002   0.297593  -0.000188
    24  H   -0.000388   0.000000  -0.000028   0.000081  -0.043275  -0.000151
    25  H    0.000166   0.000000  -0.003299   0.011987  -0.035592  -0.001188
    26  H    0.000357   0.000000  -0.004210   0.000077  -0.047679   0.001325
    27  C    0.000618  -0.000100  -0.053112   0.001392   0.331311   0.000182
    28  H    0.013749  -0.000043  -0.013458   0.000116  -0.029107   0.000035
    29  H   -0.000088  -0.000001   0.000793  -0.000049  -0.044560  -0.000115
    30  H    0.001293  -0.000001  -0.002035  -0.000072  -0.050799   0.000724
               7          8          9         10         11         12
     1  Au   0.001530  -0.002517   0.013200  -0.001781   0.001528   0.013201
     2  Cl  -0.000013   0.000000  -0.000063  -0.000003  -0.000013  -0.000063
     3  P   -0.036859   0.003236  -0.006855  -0.004912  -0.036851  -0.006857
     4  N    0.320016  -0.041348  -0.048131  -0.033985   0.320011  -0.048127
     5  N    0.001632  -0.000049  -0.000072   0.000084  -0.006232  -0.000341
     6  N   -0.006260   0.000346  -0.000340   0.007504   0.001632  -0.000072
     7  C    4.973417   0.373951   0.379135   0.379808  -0.050651  -0.002919
     8  H    0.373951   0.575324  -0.041485  -0.023904  -0.005245  -0.002069
     9  H    0.379135  -0.041485   0.555871  -0.032009  -0.002918   0.008376
    10  H    0.379808  -0.023904  -0.032009   0.525126   0.005128  -0.000179
    11  C   -0.050651  -0.005245  -0.002918   0.005128   4.973383   0.379132
    12  H   -0.002919  -0.002069   0.008376  -0.000179   0.379132   0.555875
    13  H   -0.005245   0.008082  -0.002072   0.000105   0.373947  -0.041484
    14  H    0.005128   0.000105  -0.000179  -0.000203   0.379824  -0.032013
    15  C   -0.000784   0.000153   0.000011  -0.000246   0.000069  -0.000014
    16  H    0.000018   0.000003  -0.000002   0.000190   0.000013   0.000000
    17  H   -0.001119  -0.000341   0.000207  -0.001588  -0.000252   0.000029
    18  H    0.000536  -0.000046   0.000000   0.000229  -0.000006   0.000000
    19  C    0.000069  -0.000001   0.000018  -0.000246  -0.000018   0.000002
    20  H   -0.000016   0.000000   0.000000   0.000026   0.000002   0.000000
    21  H    0.000129  -0.000004  -0.000004  -0.000023   0.000000   0.000000
    22  H   -0.000026   0.000000  -0.000010  -0.000044  -0.000005   0.000000
    23  C    0.000069   0.000034  -0.000014   0.000004  -0.000789   0.000012
    24  H   -0.000006   0.000001   0.000000   0.000000   0.000535   0.000000
    25  H   -0.000251  -0.000055   0.000029  -0.000052  -0.001122   0.000207
    26  H    0.000013  -0.000002   0.000000   0.000000   0.000019  -0.000002
    27  C   -0.000018   0.000000   0.000002  -0.000002   0.000069   0.000018
    28  H   -0.000005   0.000000   0.000000   0.000000  -0.000026  -0.000010
    29  H    0.000000   0.000000   0.000000   0.000000   0.000129  -0.000004
    30  H    0.000002   0.000000   0.000000   0.000000  -0.000016   0.000000
              13         14         15         16         17         18
     1  Au  -0.002516  -0.001777   0.003998   0.000356   0.000167  -0.000387
     2  Cl   0.000000  -0.000003   0.000000   0.000000   0.000000   0.000000
     3  P    0.003240  -0.004920  -0.023192  -0.004207  -0.003298  -0.000031
     4  N   -0.041347  -0.033989  -0.008007   0.000077   0.011991   0.000082
     5  N    0.000347   0.007480  -0.000187   0.001324  -0.001188  -0.000151
     6  N   -0.000049   0.000084   0.297593  -0.047681  -0.035592  -0.043272
     7  C   -0.005245   0.005128  -0.000784   0.000018  -0.001119   0.000536
     8  H    0.008082   0.000105   0.000153   0.000003  -0.000341  -0.000046
     9  H   -0.002072  -0.000179   0.000011  -0.000002   0.000207   0.000000
    10  H    0.000105  -0.000203  -0.000246   0.000190  -0.001588   0.000229
    11  C    0.373947   0.379824   0.000069   0.000013  -0.000252  -0.000006
    12  H   -0.041484  -0.032013  -0.000014   0.000000   0.000029   0.000000
    13  H    0.575330  -0.023906   0.000034  -0.000002  -0.000055   0.000001
    14  H   -0.023906   0.525154   0.000004   0.000000  -0.000052   0.000000
    15  C    0.000034   0.000004   4.970371   0.379397   0.376230   0.378977
    16  H   -0.000002   0.000000   0.379397   0.587243  -0.031327  -0.043228
    17  H   -0.000055  -0.000052   0.376230  -0.031327   0.526038  -0.025094
    18  H    0.000001   0.000000   0.378977  -0.043228  -0.025094   0.570450
    19  C    0.000000  -0.000002  -0.049600  -0.002331   0.004965  -0.004044
    20  H    0.000000   0.000000  -0.003087   0.009005  -0.000117  -0.002345
    21  H    0.000000   0.000000  -0.004111  -0.002129   0.000073   0.008788
    22  H    0.000000   0.000000   0.004343  -0.000116  -0.000203   0.000086
    23  C    0.000152  -0.000238  -0.000486   0.000202  -0.000885   0.000065
    24  H   -0.000046   0.000231   0.000065   0.000025   0.000001  -0.000002
    25  H   -0.000341  -0.001590  -0.000885  -0.000084   0.003793   0.000001
    26  H    0.000003   0.000190   0.000202   0.000837  -0.000084   0.000025
    27  C   -0.000001  -0.000245  -0.000031   0.000029   0.000019   0.000000
    28  H    0.000000  -0.000043  -0.000008  -0.000001  -0.000001   0.000000
    29  H   -0.000004  -0.000022   0.000001   0.000001   0.000000   0.000000
    30  H    0.000000   0.000026   0.000003  -0.000006  -0.000001   0.000001
              19         20         21         22         23         24
     1  Au   0.000621   0.001290  -0.000087   0.013755   0.003996  -0.000388
     2  Cl  -0.000100  -0.000001  -0.000001  -0.000043   0.000000   0.000000
     3  P   -0.053123  -0.002033   0.000792  -0.013461  -0.023193  -0.000028
     4  N    0.001392  -0.000072  -0.000049   0.000116  -0.008002   0.000081
     5  N    0.000181   0.000724  -0.000115   0.000035   0.297593  -0.043275
     6  N    0.331315  -0.050798  -0.044561  -0.029108  -0.000188  -0.000151
     7  C    0.000069  -0.000016   0.000129  -0.000026   0.000069  -0.000006
     8  H   -0.000001   0.000000  -0.000004   0.000000   0.000034   0.000001
     9  H    0.000018   0.000000  -0.000004  -0.000010  -0.000014   0.000000
    10  H   -0.000246   0.000026  -0.000023  -0.000044   0.000004   0.000000
    11  C   -0.000018   0.000002   0.000000  -0.000005  -0.000789   0.000535
    12  H    0.000002   0.000000   0.000000   0.000000   0.000012   0.000000
    13  H    0.000000   0.000000   0.000000   0.000000   0.000152  -0.000046
    14  H   -0.000002   0.000000   0.000000   0.000000  -0.000238   0.000231
    15  C   -0.049600  -0.003087  -0.004111   0.004343  -0.000486   0.000065
    16  H   -0.002331   0.009005  -0.002129  -0.000116   0.000202   0.000025
    17  H    0.004965  -0.000117   0.000073  -0.000203  -0.000885   0.000001
    18  H   -0.004044  -0.002345   0.008788   0.000086   0.000065  -0.000002
    19  C    4.977422   0.375561   0.377517   0.374763  -0.000031   0.000000
    20  H    0.375561   0.598221  -0.047048  -0.029351   0.000003   0.000001
    21  H    0.377517  -0.047048   0.572935  -0.021933   0.000001   0.000000
    22  H    0.374763  -0.029351  -0.021933   0.468770  -0.000008   0.000000
    23  C   -0.000031   0.000003   0.000001  -0.000008   4.970380   0.378976
    24  H    0.000000   0.000001   0.000000   0.000000   0.378976   0.570450
    25  H    0.000019  -0.000001   0.000000  -0.000001   0.376235  -0.025096
    26  H    0.000029  -0.000006   0.000001  -0.000001   0.379395  -0.043227
    27  C    0.000335   0.000089  -0.000003  -0.000089  -0.049600  -0.004041
    28  H   -0.000089  -0.000025   0.000001  -0.000064   0.004343   0.000086
    29  H   -0.000003   0.000003   0.000000   0.000001  -0.004108   0.008785
    30  H    0.000089  -0.000004   0.000003  -0.000025  -0.003089  -0.002346
              25         26         27         28         29         30
     1  Au   0.000166   0.000357   0.000618   0.013749  -0.000088   0.001293
     2  Cl   0.000000   0.000000  -0.000100  -0.000043  -0.000001  -0.000001
     3  P   -0.003299  -0.004210  -0.053112  -0.013458   0.000793  -0.002035
     4  N    0.011987   0.000077   0.001392   0.000116  -0.000049  -0.000072
     5  N   -0.035592  -0.047679   0.331311  -0.029107  -0.044560  -0.050799
     6  N   -0.001188   0.001325   0.000182   0.000035  -0.000115   0.000724
     7  C   -0.000251   0.000013  -0.000018  -0.000005   0.000000   0.000002
     8  H   -0.000055  -0.000002   0.000000   0.000000   0.000000   0.000000
     9  H    0.000029   0.000000   0.000002   0.000000   0.000000   0.000000
    10  H   -0.000052   0.000000  -0.000002   0.000000   0.000000   0.000000
    11  C   -0.001122   0.000019   0.000069  -0.000026   0.000129  -0.000016
    12  H    0.000207  -0.000002   0.000018  -0.000010  -0.000004   0.000000
    13  H   -0.000341   0.000003  -0.000001   0.000000  -0.000004   0.000000
    14  H   -0.001590   0.000190  -0.000245  -0.000043  -0.000022   0.000026
    15  C   -0.000885   0.000202  -0.000031  -0.000008   0.000001   0.000003
    16  H   -0.000084   0.000837   0.000029  -0.000001   0.000001  -0.000006
    17  H    0.003793  -0.000084   0.000019  -0.000001   0.000000  -0.000001
    18  H    0.000001   0.000025   0.000000   0.000000   0.000000   0.000001
    19  C    0.000019   0.000029   0.000335  -0.000089  -0.000003   0.000089
    20  H   -0.000001  -0.000006   0.000089  -0.000025   0.000003  -0.000004
    21  H    0.000000   0.000001  -0.000003   0.000001   0.000000   0.000003
    22  H   -0.000001  -0.000001  -0.000089  -0.000064   0.000001  -0.000025
    23  C    0.376235   0.379395  -0.049600   0.004343  -0.004108  -0.003089
    24  H   -0.025096  -0.043227  -0.004041   0.000086   0.008785  -0.002346
    25  H    0.526045  -0.031328   0.004965  -0.000203   0.000073  -0.000117
    26  H   -0.031328   0.587241  -0.002334  -0.000116  -0.002129   0.009008
    27  C    0.004965  -0.002334   4.977411   0.374768   0.377521   0.375560
    28  H   -0.000203  -0.000116   0.374768   0.468782  -0.021935  -0.029351
    29  H    0.000073  -0.002129   0.377521  -0.021935   0.572923  -0.047046
    30  H   -0.000117   0.009008   0.375560  -0.029351  -0.047046   0.598225
 Mulliken charges:
               1
     1  Au  -0.108995
     2  Cl  -0.391671
     3  P    0.896079
     4  N   -0.526061
     5  N   -0.493840
     6  N   -0.493815
     7  C   -0.331282
     8  H    0.155829
     9  H    0.177305
    10  H    0.180972
    11  C   -0.331277
    12  H    0.177303
    13  H    0.155826
    14  H    0.180957
    15  C   -0.320812
    16  H    0.152394
    17  H    0.177684
    18  H    0.159366
    19  C   -0.334711
    20  H    0.149978
    21  H    0.159828
    22  H    0.232619
    23  C   -0.320827
    24  H    0.159370
    25  H    0.177685
    26  H    0.152395
    27  C   -0.334712
    28  H    0.232607
    29  H    0.159836
    30  H    0.149972
 Sum of Mulliken charges =   0.00000
 Mulliken charges with hydrogens summed into heavy atoms:
               1
     1  Au  -0.108995
     2  Cl  -0.391671
     3  P    0.896079
     4  N   -0.526061
     5  N   -0.493840
     6  N   -0.493815
     7  C    0.182824
    11  C    0.182808
    15  C    0.168632
    19  C    0.207714
    23  C    0.168622
    27  C    0.207704
 Electronic spatial extent (au):  <R**2>=           3727.1295
 Charge=              0.0000 electrons
 Dipole moment (field-independent basis, Debye):
    X=            -10.3007    Y=              0.0007    Z=             -0.5700  Tot=             10.3164
 Quadrupole moment (field-independent basis, Debye-Ang):
   XX=           -122.9376   YY=           -100.5144   ZZ=           -100.6175
   XY=              0.0020   XZ=             -0.8501   YZ=              0.0001
 Traceless Quadrupole moment (field-independent basis, Debye-Ang):
   XX=            -14.9145   YY=              7.5088   ZZ=              7.4057
   XY=              0.0020   XZ=             -0.8501   YZ=              0.0001
 Octapole moment (field-independent basis, Debye-Ang**2):
  XXX=             32.0488  YYY=              0.0059  ZZZ=              5.9082  XYY=             28.8358
  XXY=             -0.0014  XXZ=             -4.4712  XZZ=             32.0604  YZZ=             -0.0070
  YYZ=             -7.3642  XYZ=             -0.0004
 Hexadecapole moment (field-independent basis, Debye-Ang**3):
 XXXX=          -3103.5314 YYYY=          -1045.2922 ZZZZ=          -1016.5536 XXXY=              0.0157
 XXXZ=             -3.3486 YYYX=             -0.0040 YYYZ=              0.0024 ZZZX=            -22.7423
 ZZZY=              0.0052 XXYY=           -639.8794 XXZZ=           -643.9980 YYZZ=           -343.1255
 XXYZ=              0.0004 YYXZ=              1.7521 ZZXY=              0.0061
 N-N= 1.224126815810D+03 E-N=-5.571517625843D+03  KE= 1.244205331145D+03
   1 Symmetry operations used in ECPInt.
 ECPInt:  NShTT=    4656 NPrTT=   24372 LenC2=    4484 LenP2D=   15456.
 LDataN:  DoStor=T MaxTD1= 8 Len=  415
 Calling FoFJK, ICntrl=      2127 FMM=F ISym2X=0 I1Cent= 0 IOpClX= 0 NMat=1 NMatS=1 NMatT=0.
 Defaulting to unpruned grid for atomic number  79.
 Defaulting to unpruned grid for atomic number  79.
 Defaulting to unpruned grid for atomic number  79.
 Defaulting to unpruned grid for atomic number  79.
 Defaulting to unpruned grid for atomic number  79.
 Defaulting to unpruned grid for atomic number  79.
 Defaulting to unpruned grid for atomic number  79.
 Defaulting to unpruned grid for atomic number  79.
 ***** Axes restored to original set *****
 -------------------------------------------------------------------
 Center     Atomic                   Forces (Hartrees/Bohr)
 Number     Number              X              Y              Z
 -------------------------------------------------------------------
      1       79           0.011032750   -0.000005663    0.001651582
      2       17          -0.006641684    0.000001125   -0.000536254
      3       15           0.022146003   -0.000013070    0.000382617
      4        7          -0.009654148    0.000008748    0.004684797
      5        7          -0.006347269   -0.007717781   -0.001124307
      6        7          -0.006358721    0.007725435   -0.001118435
      7        6           0.000951068    0.005040222    0.003786874
      8        1          -0.000288709    0.000385311    0.000657901
      9        1           0.000223098    0.000595633    0.000165238
     10        1           0.000446828   -0.000224714    0.000560657
     11        6           0.000944508   -0.005038574    0.003795586
     12        1           0.000224057   -0.000596682    0.000163862
     13        1          -0.000286980   -0.000386763    0.000655155
     14        1           0.000452392    0.000221184    0.000555811
     15        6          -0.005177021    0.001533558    0.000099862
     16        1          -0.001119573    0.000328595   -0.000736080
     17        1           0.000080253    0.000294096   -0.000205578
     18        1          -0.000807218    0.000516304   -0.000226814
     19        6           0.004145518    0.003257194   -0.004310081
     20        1          -0.000194469    0.000249330   -0.001039198
     21        1           0.000196910    0.000519767   -0.000354392
     22        1          -0.000544053    0.001063882   -0.000367456
     23        6          -0.005174017   -0.001530324    0.000099934
     24        1          -0.000808777   -0.000514968   -0.000227654
     25        1           0.000080510   -0.000295925   -0.000205325
     26        1          -0.001119905   -0.000330376   -0.000738682
     27        6           0.004140858   -0.003251298   -0.004306083
     28        1          -0.000543782   -0.001064938   -0.000368059
     29        1           0.000194831   -0.000519062   -0.000355264
     30        1          -0.000193259   -0.000250248   -0.001040214
 -------------------------------------------------------------------
 Cartesian Forces:  Max     0.022146003 RMS     0.003689362

 GradGradGradGradGradGradGradGradGradGradGradGradGradGradGradGradGradGrad
 Berny optimization.
 FormGI is forming the generalized inverse of G from B-inverse, IUseBI=4.
 Internal  Forces:  Max     0.019870665 RMS     0.003414964
 Search for a local minimum.
 Step number   1 out of a maximum of  146
 All quantities printed in internal units (Hartrees-Bohrs-Radians)
 Mixed Optimization -- RFO/linear search
 Second derivative matrix not updated -- first step.
 ITU=  0
     Eigenvalues ---    0.00230   0.00230   0.00933   0.00933   0.00983
     Eigenvalues ---    0.00983   0.01019   0.01019   0.01763   0.01763
     Eigenvalues ---    0.02296   0.02357   0.02554   0.02554   0.07268
     Eigenvalues ---    0.07268   0.07330   0.07330   0.07364   0.07364
     Eigenvalues ---    0.07569   0.07569   0.07578   0.07578   0.07595
     Eigenvalues ---    0.07595   0.08274   0.10022   0.10270   0.16000
     Eigenvalues ---    0.16000   0.16000   0.16000   0.16000   0.16000
     Eigenvalues ---    0.16000   0.16000   0.16000   0.16000   0.16000
     Eigenvalues ---    0.16000   0.16000   0.16000   0.16000   0.16000
     Eigenvalues ---    0.16000   0.16000   0.17939   0.18414   0.19240
     Eigenvalues ---    0.20341   0.20347   0.23103   0.23186   0.23188
     Eigenvalues ---    0.23729   0.23730   0.33508   0.33508   0.33754
     Eigenvalues ---    0.33754   0.33775   0.33775   0.33997   0.33997
     Eigenvalues ---    0.34001   0.34001   0.34209   0.34209   0.34401
     Eigenvalues ---    0.34401   0.34641   0.34642   0.34745   0.34746
     Eigenvalues ---    0.37297   0.37298   0.37776   0.37777   0.37835
     Eigenvalues ---    0.38129   0.38131   0.40464   0.40467
 RFO step:  Lambda=-4.47744096D-03 EMin= 2.30000000D-03
 Linear search not attempted -- first point.
 Iteration  1 RMS(Cart)=  0.03579611 RMS(Int)=  0.00058168
 Iteration  2 RMS(Cart)=  0.00064331 RMS(Int)=  0.00001887
 Iteration  3 RMS(Cart)=  0.00000025 RMS(Int)=  0.00001887
 Variable       Old X    -DE/DX   Delta X   Delta X   Delta X     New X
                                 (Linear)    (Quad)   (Total)
    R1        4.43019  -0.00666   0.00000  -0.03531  -0.03531   4.39488
    R2        4.27641   0.00439   0.00000   0.01865   0.01865   4.29506
    R3        3.18306   0.01663   0.00000   0.04343   0.04343   3.22648
    R4        3.14628   0.01986   0.00000   0.04854   0.04854   3.19483
    R5        3.14624   0.01987   0.00000   0.04857   0.04857   3.19481
    R6        2.75401   0.00779   0.00000   0.02063   0.02063   2.77464
    R7        2.75399   0.00779   0.00000   0.02064   0.02064   2.77463
    R8        2.74692   0.00740   0.00000   0.01936   0.01936   2.76628
    R9        2.74178   0.00864   0.00000   0.02240   0.02240   2.76417
   R10        2.74691   0.00740   0.00000   0.01936   0.01936   2.76628
   R11        2.74175   0.00865   0.00000   0.02241   0.02241   2.76416
   R12        2.06978   0.00068   0.00000   0.00197   0.00197   2.07176
   R13        2.08169   0.00029   0.00000   0.00084   0.00084   2.08253
   R14        2.06091  -0.00055   0.00000  -0.00157  -0.00157   2.05934
   R15        2.08169   0.00029   0.00000   0.00084   0.00084   2.08253
   R16        2.06979   0.00068   0.00000   0.00196   0.00196   2.07176
   R17        2.06089  -0.00055   0.00000  -0.00156  -0.00156   2.05933
   R18        2.07712   0.00106   0.00000   0.00309   0.00309   2.08021
   R19        2.06261  -0.00034   0.00000  -0.00097  -0.00097   2.06163
   R20        2.07335   0.00057   0.00000   0.00165   0.00165   2.07500
   R21        2.07748   0.00096   0.00000   0.00282   0.00282   2.08030
   R22        2.07329   0.00044   0.00000   0.00127   0.00127   2.07456
   R23        2.06659  -0.00079   0.00000  -0.00227  -0.00227   2.06432
   R24        2.07335   0.00057   0.00000   0.00165   0.00165   2.07500
   R25        2.06261  -0.00034   0.00000  -0.00098  -0.00098   2.06163
   R26        2.07711   0.00106   0.00000   0.00310   0.00310   2.08021
   R27        2.06659  -0.00079   0.00000  -0.00226  -0.00226   2.06432
   R28        2.07329   0.00044   0.00000   0.00127   0.00127   2.07456
   R29        2.07748   0.00096   0.00000   0.00282   0.00282   2.08030
    A1        2.01526  -0.00131   0.00000  -0.00620  -0.00618   2.00909
    A2        1.94279   0.00176   0.00000   0.01375   0.01381   1.95659
    A3        1.94270   0.00177   0.00000   0.01382   0.01387   1.95657
    A4        1.77373   0.00021   0.00000  -0.00360  -0.00370   1.77003
    A5        1.77378   0.00020   0.00000  -0.00365  -0.00375   1.77003
    A6        2.00607  -0.00314   0.00000  -0.01843  -0.01845   1.98762
    A7        2.04006   0.00058   0.00000   0.00042   0.00039   2.04045
    A8        2.04019   0.00057   0.00000   0.00036   0.00033   2.04052
    A9        1.94270  -0.00135   0.00000  -0.00856  -0.00857   1.93413
   A10        2.13081   0.00094   0.00000   0.00427   0.00427   2.13507
   A11        2.11431   0.00138   0.00000   0.00614   0.00614   2.12045
   A12        1.97722  -0.00228   0.00000  -0.00909  -0.00910   1.96812
   A13        2.13081   0.00094   0.00000   0.00426   0.00427   2.13507
   A14        2.11438   0.00138   0.00000   0.00612   0.00612   2.12050
   A15        1.97723  -0.00227   0.00000  -0.00907  -0.00908   1.96815
   A16        1.89817   0.00054   0.00000   0.00394   0.00394   1.90210
   A17        1.95116   0.00055   0.00000   0.00307   0.00307   1.95423
   A18        1.93471   0.00029   0.00000   0.00137   0.00137   1.93608
   A19        1.88852  -0.00043   0.00000  -0.00189  -0.00190   1.88663
   A20        1.89532  -0.00032   0.00000  -0.00141  -0.00142   1.89391
   A21        1.89465  -0.00068   0.00000  -0.00528  -0.00528   1.88937
   A22        1.95119   0.00055   0.00000   0.00307   0.00306   1.95425
   A23        1.89811   0.00055   0.00000   0.00398   0.00397   1.90208
   A24        1.93477   0.00028   0.00000   0.00134   0.00134   1.93611
   A25        1.88849  -0.00043   0.00000  -0.00187  -0.00188   1.88660
   A26        1.89469  -0.00068   0.00000  -0.00532  -0.00532   1.88937
   A27        1.89529  -0.00032   0.00000  -0.00139  -0.00140   1.89389
   A28        1.94607   0.00099   0.00000   0.00613   0.00612   1.95219
   A29        1.93018  -0.00015   0.00000  -0.00066  -0.00066   1.92952
   A30        1.90990   0.00082   0.00000   0.00468   0.00467   1.91458
   A31        1.90053  -0.00034   0.00000  -0.00146  -0.00146   1.89906
   A32        1.88682  -0.00101   0.00000  -0.00659  -0.00660   1.88021
   A33        1.88896  -0.00038   0.00000  -0.00250  -0.00250   1.88646
   A34        1.94746   0.00038   0.00000   0.00266   0.00265   1.95011
   A35        1.91390   0.00030   0.00000   0.00083   0.00083   1.91473
   A36        1.92717   0.00109   0.00000   0.00728   0.00727   1.93444
   A37        1.88941  -0.00059   0.00000  -0.00478  -0.00478   1.88463
   A38        1.89338  -0.00044   0.00000  -0.00089  -0.00092   1.89247
   A39        1.89122  -0.00082   0.00000  -0.00560  -0.00560   1.88562
   A40        1.90990   0.00082   0.00000   0.00469   0.00468   1.91458
   A41        1.93019  -0.00014   0.00000  -0.00065  -0.00065   1.92954
   A42        1.94607   0.00099   0.00000   0.00613   0.00612   1.95219
   A43        1.88898  -0.00038   0.00000  -0.00251  -0.00251   1.88647
   A44        1.88683  -0.00102   0.00000  -0.00661  -0.00662   1.88021
   A45        1.90049  -0.00034   0.00000  -0.00144  -0.00145   1.89904
   A46        1.92717   0.00109   0.00000   0.00730   0.00729   1.93445
   A47        1.91391   0.00029   0.00000   0.00081   0.00081   1.91472
   A48        1.94744   0.00039   0.00000   0.00268   0.00267   1.95010
   A49        1.89121  -0.00082   0.00000  -0.00560  -0.00560   1.88561
   A50        1.89339  -0.00044   0.00000  -0.00090  -0.00092   1.89247
   A51        1.88943  -0.00059   0.00000  -0.00480  -0.00480   1.88463
   A52        3.18010  -0.00034   0.00000  -0.04991  -0.04991   3.13019
   A53        3.18999  -0.00035   0.00000  -0.05200  -0.05200   3.13799
    D1        1.18277  -0.00041   0.00000  -0.00657  -0.00658   1.17619
    D2       -1.18323   0.00042   0.00000   0.00678   0.00679  -1.17644
    D3       -2.99558   0.00120   0.00000   0.00461   0.00459  -2.99098
    D4        0.92160   0.00204   0.00000   0.01796   0.01796   0.93957
    D5       -0.92200  -0.00203   0.00000  -0.01779  -0.01779  -0.93979
    D6        2.99518  -0.00120   0.00000  -0.00444  -0.00442   2.99076
    D7        3.01512  -0.00024   0.00000  -0.00019  -0.00020   3.01492
    D8       -0.51891  -0.00061   0.00000   0.00193   0.00194  -0.51696
    D9        0.86017   0.00030   0.00000   0.00239   0.00241   0.86258
   D10       -2.67386  -0.00007   0.00000   0.00451   0.00456  -2.66930
   D11       -1.03917   0.00112   0.00000   0.01559   0.01553  -1.02364
   D12        1.70999   0.00076   0.00000   0.01771   0.01768   1.72767
   D13       -3.01508   0.00024   0.00000   0.00027   0.00027  -3.01480
   D14        0.51869   0.00061   0.00000  -0.00186  -0.00188   0.51681
   D15       -0.86014  -0.00030   0.00000  -0.00232  -0.00234  -0.86248
   D16        2.67363   0.00007   0.00000  -0.00444  -0.00449   2.66913
   D17        1.03917  -0.00111   0.00000  -0.01548  -0.01543   1.02374
   D18       -1.71025  -0.00075   0.00000  -0.01761  -0.01758  -1.72783
   D19        2.84136  -0.00002   0.00000   0.00276   0.00275   2.84410
   D20       -1.35767   0.00014   0.00000   0.00487   0.00487  -1.35281
   D21        0.75883  -0.00014   0.00000   0.00119   0.00118   0.76001
   D22       -1.03475  -0.00005   0.00000  -0.00636  -0.00636  -1.04111
   D23        1.04940   0.00011   0.00000  -0.00425  -0.00424   1.04516
   D24       -3.11728  -0.00017   0.00000  -0.00793  -0.00792  -3.12520
   D25        1.35707  -0.00014   0.00000  -0.00476  -0.00476   1.35231
   D26       -2.84203   0.00002   0.00000  -0.00261  -0.00260  -2.84463
   D27       -0.75955   0.00015   0.00000  -0.00102  -0.00101  -0.76055
   D28       -1.04995  -0.00011   0.00000   0.00433   0.00432  -1.04563
   D29        1.03414   0.00005   0.00000   0.00648   0.00647   1.04061
   D30        3.11662   0.00018   0.00000   0.00807   0.00807   3.12469
   D31       -2.49271   0.00014   0.00000   0.00083   0.00083  -2.49189
   D32       -0.41338   0.00010   0.00000   0.00027   0.00027  -0.41312
   D33        1.70394   0.00024   0.00000   0.00215   0.00214   1.70608
   D34        1.01324  -0.00022   0.00000  -0.00403  -0.00402   1.00922
   D35        3.09257  -0.00026   0.00000  -0.00459  -0.00458   3.08799
   D36       -1.07329  -0.00012   0.00000  -0.00271  -0.00270  -1.07599
   D37        0.36136   0.00016   0.00000   0.00682   0.00684   0.36820
   D38        2.44410   0.00001   0.00000   0.00494   0.00495   2.44905
   D39       -1.74581  -0.00028   0.00000   0.00119   0.00119  -1.74462
   D40       -3.14075   0.00042   0.00000   0.01124   0.01124  -3.12951
   D41       -1.05801   0.00027   0.00000   0.00935   0.00935  -1.04866
   D42        1.03527  -0.00002   0.00000   0.00560   0.00559   1.04086
   D43       -1.70405  -0.00024   0.00000  -0.00213  -0.00212  -1.70616
   D44        0.41332  -0.00010   0.00000  -0.00027  -0.00026   0.41306
   D45        2.49262  -0.00014   0.00000  -0.00082  -0.00082   2.49180
   D46        1.07344   0.00012   0.00000   0.00273   0.00273   1.07616
   D47       -3.09238   0.00026   0.00000   0.00458   0.00458  -3.08780
   D48       -1.01308   0.00022   0.00000   0.00403   0.00402  -1.00906
   D49        1.74580   0.00028   0.00000  -0.00113  -0.00113   1.74467
   D50       -2.44413  -0.00001   0.00000  -0.00486  -0.00487  -2.44899
   D51       -0.36138  -0.00016   0.00000  -0.00674  -0.00676  -0.36813
   D52       -1.03552   0.00002   0.00000  -0.00554  -0.00553  -1.04105
   D53        1.05775  -0.00027   0.00000  -0.00927  -0.00927   1.04848
   D54        3.14049  -0.00042   0.00000  -0.01116  -0.01116   3.12934
         Item               Value     Threshold  Converged?
 Maximum Force            0.019871     0.000450     NO 
 RMS     Force            0.003415     0.000300     NO 
 Maximum Displacement     0.157718     0.001800     NO 
 RMS     Displacement     0.035684     0.001200     NO 
 Predicted change in Energy=-2.284589D-03
 GradGradGradGradGradGradGradGradGradGradGradGradGradGradGradGradGradGrad

                          Input orientation:                          
 ---------------------------------------------------------------------
 Center     Atomic      Atomic             Coordinates (Angstroms)
 Number     Number       Type             X           Y           Z
 ---------------------------------------------------------------------
      1         79           0        1.229849   -0.001932    0.022945
      2         17           0        3.555455    0.011701    0.033269
      3         15           0       -1.042761   -0.000745   -0.009884
      4          7           0       -1.789615   -0.000787    1.525487
      5          7           0       -1.669966   -1.417153   -0.687105
      6          7           0       -1.668461    1.416705   -0.686292
      7          6           0       -1.627023    1.207580    2.343567
      8          1           0       -2.381651    1.204027    3.138837
      9          1           0       -0.632392    1.255057    2.815707
     10          1           0       -1.762531    2.106090    1.741997
     11          6           0       -1.628599   -1.209858    2.342827
     12          1           0       -0.633866   -1.259172    2.814567
     13          1           0       -2.382904   -1.205527    3.138399
     14          1           0       -1.765782   -2.107837    1.740851
     15          6           0       -3.099967    1.722609   -0.677781
     16          1           0       -3.581712    1.455471   -1.630839
     17          1           0       -3.600865    1.188953    0.131248
     18          1           0       -3.247458    2.799016   -0.518751
     19          6           0       -0.936118    2.163484   -1.708824
     20          1           0       -1.314116    1.947989   -2.720032
     21          1           0       -1.044478    3.241031   -1.529004
     22          1           0        0.128606    1.920989   -1.679174
     23          6           0       -3.101810   -1.721491   -0.678880
     24          1           0       -3.250490   -2.797834   -0.520525
     25          1           0       -3.602199   -1.187775    0.130424
     26          1           0       -3.583192   -1.453242   -1.631810
     27          6           0       -0.938439   -2.163963   -1.710211
     28          1           0        0.126532   -1.922559   -1.680485
     29          1           0       -1.047856   -3.241523   -1.531116
     30          1           0       -1.316309   -1.947405   -2.721240
 ---------------------------------------------------------------------
                    Distance matrix (angstroms):
                    1          2          3          4          5
     1  Au   0.000000
     2  Cl   2.325668   0.000000
     3  P    2.272848   4.598435   0.000000
     4  N    3.372654   5.549472   1.707382   0.000000
     5  N    3.303929   5.464941   1.690629   2.629823   0.000000
     6  N    3.303899   5.457206   1.690619   2.629815   2.833858
     7  C    3.874264   5.798765   2.709270   1.468279   4.009494
     8  H    4.919964   6.805543   3.627471   2.098805   4.692005
     9  H    3.584338   5.179378   3.119200   2.140321   4.526252
    10  H    4.043913   5.965500   2.833004   2.118146   4.280461
    11  C    3.874489   5.805229   2.709319   1.468272   3.037296
    12  H    3.584304   5.186631   3.119031   2.140331   3.655156
    13  H    4.920029   6.810843   3.627557   2.098780   3.897121
    14  H    4.044730   5.976942   2.833314   2.118162   2.526103
    15  C    4.713000   6.908505   2.765526   3.088933   3.450087
    16  H    5.292461   7.469463   3.345793   3.910843   3.577342
    17  H    4.976518   7.253167   2.824747   2.576822   3.345125
    18  H    5.308957   7.372480   3.599763   3.760733   4.504765
    19  C    3.518445   5.276294   2.753480   3.984130   3.795181
    20  H    4.218752   5.919678   3.349044   4.695557   3.947607
    21  H    4.254165   5.833408   3.580061   4.516030   4.774799
    22  H    2.794203   4.280319   2.802087   4.200315   3.919471
    23  C    4.713036   6.915944   2.765539   3.088999   1.463854
    24  H    5.309037   7.383838   3.599796   3.760824   2.105252
    25  H    4.976592   7.258112   2.824792   2.576937   2.110567
    26  H    5.292436   7.475214   3.345771   3.910891   2.134058
    27  C    3.518477   5.288508   2.753454   3.984165   1.462738
    28  H    2.794243   4.293696   2.802057   4.200367   2.114153
    29  H    4.254174   5.849892   3.580058   4.516126   2.104210
    30  H    4.218808   5.929544   3.348995   4.695533   2.131654
                    6          7          8          9         10
     6  N    0.000000
     7  C    3.037350   0.000000
     8  H    3.896856   1.096326   0.000000
     9  H    3.655622   1.102026   1.779585   0.000000
    10  H    2.526003   1.089757   1.774314   1.776042   0.000000
    11  C    4.009487   2.417439   2.650955   2.700343   3.372603
    12  H    4.526226   2.700568   3.037640   2.514229   3.708002
    13  H    4.691993   2.650698   2.409554   3.036922   3.647137
    14  H    4.280525   3.372612   3.647205   3.707957   4.213929
    15  C    1.463851   3.400494   3.918097   4.302557   2.791258
    16  H    2.134057   4.436007   4.924752   5.339516   3.886997
    17  H    2.110551   2.964920   3.245351   4.002814   2.610579
    18  H    2.105252   3.653949   4.083083   4.510099   2.792156
    19  C    1.462729   4.220541   5.148780   4.624810   3.548861
    20  H    2.131647   5.127002   6.001621   5.620437   4.487290
    21  H    2.104206   4.412605   5.265563   4.794833   3.535977
    22  H    2.114135   4.446755   5.479840   4.607227   3.913447
[...]
 .00002694,-0.00012169,-0.00030464,-0.00005204,-0.00001013,0.00021206,-
 0.00020770,-0.00003014,-0.00002169,0.00002585,-0.00017261,-0.00005852,
 0.00007193,0.00019595,-0.00007449,-0.00013437,0.00002812,0.00011127,0.
 00008728,-0.00021932,0.00000425,-0.00000309,0.00003031,0.00000455,-0.0
 0006745,0.00003498,-0.00002288,0.00000146,0.00001098,-0.02566480,-0.30
 054010,0.03169263,0.03503156,0.32436079,-0.00000197,-0.00009866,-0.000
 03850,-0.00004168,0.00001431,-0.00000535,0.00019490,-0.00015940,-0.000
 21986,-0.00054870,-0.00029149,-0.00016035,0.00126399,-0.00308697,0.002
 08557,0.00013803,-0.00016077,-0.00004763,-0.00014049,0.00015407,-0.000
 11992,0.00002412,-0.00002288,-0.00002018,0.00000128,-0.00007288,-0.000
 06009,-0.00000317,0.00003360,0.00001977,0.00005526,-0.00059115,0.00011
 310,0.00002984,0.00017511,-0.00000391,0.00001408,0.00004299,-0.0000319
 6,-0.00020896,0.00014084,-0.00004598,-0.00020461,0.00002662,-0.0005518
 8,0.00015028,-0.00001031,0.00023973,-0.00010064,0.00006387,0.00011253,
 0.00001376,-0.00002817,0.00023781,-0.00001132,-0.00003615,-0.00011023,
 -0.00000379,-0.00000029,0.00004390,0.00000815,-0.00000418,0.00002430,0
 .00000289,0.00000325,0.00000912,0.00294812,0.03178922,-0.05622946,-0.0
 0218183,-0.03431666,0.05301195,0.00008183,0.00003296,-0.00020211,0.000
 07961,-0.00002547,0.00001082,-0.00184471,0.00180290,0.00400445,0.00132
 409,0.00053441,-0.00015896,-0.02024204,0.01690335,0.02614336,0.0000940
 9,-0.00049877,-0.00043984,0.00065713,-0.00057499,-0.00038413,-0.000048
 34,-0.00002013,0.00003528,0.00009164,0.00027746,0.00029537,-0.00001223
 ,0.00007058,0.00001319,-0.00036663,0.00034351,-0.00090783,0.00009087,0
 .00004959,0.00021629,-0.00003959,-0.00006221,0.00002007,-0.00034575,0.
 00015779,-0.00011897,-0.00011384,0.00011103,0.00022179,0.00002131,-0.0
 0000098,-0.00004453,0.00086444,-0.00010683,-0.00014310,0.00010957,0.00
 005853,-0.00010066,-0.00006435,0.00001306,-0.00000215,-0.00000858,0.00
 003824,-0.00004530,0.00000014,-0.00000908,-0.00000500,0.00002106,0.000
 01350,0.00001649,-0.10061627,0.05338002,0.08482912,0.00256667,-0.00100
 909,-0.00388609,0.11689970,-0.00002927,0.00009881,0.00004424,0.0001339
 0,-0.00002487,0.00000256,-0.00169533,0.00044745,0.00017274,-0.00072283
 ,-0.00073312,-0.00049975,-0.00443218,0.00378900,0.00789581,0.00030703,
 -0.00002023,-0.00021635,0.00005121,-0.00027934,-0.00001476,-0.00000520
 ,0.00003416,0.00001646,0.00009403,0.00001318,0.00005121,-0.00002351,-0
 .00006763,-0.00001514,-0.00006955,0.00070161,0.00001086,0.00003627,-0.
 00030139,0.00012007,0.00001834,-0.00000465,0.00016938,0.00045076,-0.00
 030899,-0.00002692,-0.00042206,-0.00070337,0.00044285,0.00009705,-0.00
 000822,-0.00000233,0.00010619,-0.00075744,0.00002491,0.00003233,0.0000
 7192,-0.00006384,0.00007630,-0.00008133,0.00012101,-0.00000777,0.00001
 391,-0.00003441,-0.00001332,0.00001039,-0.00001612,0.00001620,0.000026
 84,-0.00004057,0.06071409,-0.11587898,-0.10224731,0.01392634,-0.013130
 70,-0.02495165,-0.06158560,0.12094672,-0.00000232,0.00023579,-0.000126
 50,0.00007986,-0.00003732,0.00002882,0.00028557,-0.00181595,0.00047621
 ,-0.00117177,-0.00027995,-0.00121792,0.00104406,0.00335465,0.00230154,
 -0.00040298,0.00029842,-0.00008634,0.00001899,-0.00019544,-0.00007132,
 0.00002410,0.00000340,-0.00000293,0.00007233,0.00000152,0.00000487,0.0
 0002419,0.00004585,0.00001369,-0.00074102,-0.00005153,-0.00035455,0.00
 007901,0.00004708,0.00006819,-0.00003173,-0.00003071,-0.00008155,-0.00
 017964,0.00007039,-0.00007322,0.00060201,-0.00031586,-0.00052963,-0.00
 002323,0.00010621,-0.00037594,-0.00014302,-0.00002527,0.00098256,-0.00
 032189,-0.00019586,0.00011246,-0.00012506,0.00008980,-0.00012146,0.000
 01821,-0.00001652,0.00000710,0.00001246,0.00002711,0.00000687,-0.00005
 988,-0.00002609,0.00004615,0.09339083,-0.10041689,-0.21045271,-0.00380
 810,0.00271743,0.00516534,-0.09996184,0.11064923,0.22261375,0.00006968
 ,-0.00082561,0.00011701,-0.00035040,0.00015702,-0.00003484,-0.00077608
 ,0.00816346,0.00146069,0.00048785,-0.00037600,-0.00027136,-0.03297486,
 -0.00043322,-0.02869678,0.00097085,-0.00123916,0.00020570,0.00027367,0
 .00010834,-0.00023408,-0.00000175,-0.00011117,-0.00008443,0.00001350,0
 .00003279,0.00005250,-0.00002333,0.00001017,0.00002579,0.00014827,-0.0
 0028297,-0.00002047,0.00000395,0.00012854,0.00007543,0.00000101,-0.000
 05084,-0.00014038,-0.00028378,0.00007938,0.00014172,-0.00072863,-0.000
 07747,-0.00024044,0.00021251,0.00003563,0.00024284,0.00002124,-0.00009
 702,-0.00002326,0.00021693,0.00002160,0.00015027,0.00014112,-0.0000196
 3,-0.00035298,0.00000733,-0.00003690,0.00014257,-0.00001292,-0.0000487
 3,0.00008790,0.00002778,0.00005140,-0.00002523,-0.08532029,0.02929131,
 -0.08283119,0.00278791,0.00047709,0.00249573,0.00751538,-0.00570280,0.
 01172532,0.10498926,-0.00005082,-0.00026644,0.00007944,-0.00002871,0.0
 0004540,-0.00002075,-0.00096654,0.00161749,-0.00147404,-0.00035370,-0.
 00034890,-0.00023689,-0.00553658,0.00431848,-0.00978135,0.00052062,0.0
 0034186,0.00065266,-0.00009699,0.00015315,0.00000668,0.00002543,-0.000
 02816,-0.00000743,-0.00000168,-0.00006342,-0.00003926,-0.00001136,-0.0
 0001599,-0.00000844,0.00019962,-0.00031208,0.00004555,-0.00001307,0.00
 004351,0.00004687,0.00000036,-0.00000618,-0.00000510,-0.00008813,-0.00
 007431,0.00002733,-0.00017922,-0.00022227,-0.00027760,-0.00003581,-0.0
 0028149,0.00017061,0.00000088,-0.00000791,-0.00010605,0.00015139,0.000
 02578,0.00001023,-0.00003122,-0.00011218,0.00009211,-0.00002366,-0.000
 02849,0.00000663,0.00000777,0.00000286,-0.00001472,0.00003048,0.000018
 25,-0.00001889,0.02875254,-0.07356414,0.06201833,0.01264413,-0.0091845
 8,0.02992113,-0.00740342,0.00569344,-0.01431441,-0.02794391,0.07274126
 ,0.00010313,-0.00011992,0.00002032,-0.00015922,0.00001292,-0.00000588,
 0.00097387,0.00348155,-0.00010383,-0.00075520,-0.00088270,-0.00035096,
 -0.00520349,-0.00598113,0.00506164,0.00041361,-0.00110879,0.00004129,-
 0.00001869,0.00031763,0.00011927,0.00001591,-0.00003347,-0.00005623,-0
 .00003124,-0.00010846,-0.00007633,-0.00002105,-0.00007559,-0.00000397,
 0.00014005,0.00000045,0.00043797,-0.00005370,-0.00007840,-0.00001231,0
 .00002201,-0.00001982,0.00002155,0.00014999,-0.00013142,0.00012804,-0.
 00098922,0.00039491,-0.00043299,0.00024280,-0.00017066,0.00061836,-0.0
 0004455,0.00000245,-0.00037590,0.00026105,0.00017249,0.00023978,0.0001
 6542,-0.00004190,-0.00020907,-0.00001555,0.00000961,0.00011683,-0.0000
 2344,-0.00004406,0.00006924,0.00003747,0.00003573,-0.00001937,-0.08246
 701,0.06149097,-0.24132857,-0.00054453,0.00128064,-0.00349550,-0.00928
 024,0.00876094,-0.01930407,0.09784700,-0.06761742,0.25625463,-0.001154
 89,-0.00310872,-0.00230497,-0.00033751,0.00041171,0.00030412,0.0132664
 2,0.01047953,-0.00037228,-0.00147939,-0.00459748,-0.00380565,-0.122945
 99,0.01051478,0.03601159,-0.00073801,-0.00301402,0.00018143,0.00082441
 ,0.00098775,-0.00095509,-0.00007512,-0.00044730,-0.00040908,-0.0001398
 6,-0.00011892,-0.00020975,-0.00002329,0.00001590,0.00014511,0.00037078
 ,-0.00065872,0.00032716,-0.00012767,0.00005947,-0.00022846,-0.00003911
 ,-0.00008640,-0.00030600,-0.00018162,-0.00028571,0.00023928,-0.0009998
 5,0.00025508,0.00014965,0.00014116,0.00003112,0.00016545,-0.00006438,-
 0.00007628,-0.00012511,0.00020788,-0.00011132,-0.00001131,0.00086963,0
 .00016524,-0.00092324,-0.00001626,0.00002816,0.00023792,-0.00012567,-0
 .00024502,0.00024640,-0.00004511,-0.00004434,0.00000428,-0.02717369,0.
 01753010,0.02910231,0.00161843,0.00138515,0.00014703,-0.00610365,-0.00
 089181,0.00019853,0.00211452,0.00043178,0.00100061,0.58815090,-0.00154
 668,-0.00105879,-0.00120722,0.00075859,-0.00008969,-0.00004402,0.00637
 937,-0.02358205,-0.01860909,0.00005638,0.00068333,0.00054796,0.0309703
 5,-0.10537711,-0.06029665,-0.00092636,-0.00074492,0.00148654,-0.000495
 79,0.00021730,0.00011047,-0.00002070,0.00016126,0.00014668,0.00005817,
 -0.00005184,-0.00001683,-0.00000182,-0.00004161,0.00003401,-0.00041566
 ,0.00013706,-0.00005348,0.00011092,0.00014068,0.00002733,-0.00000192,0
 .00021290,0.00009198,0.00001684,0.00066108,-0.00026427,0.00011666,0.00
 024553,0.00001730,0.00001960,-0.00011219,0.00004186,-0.00001306,-0.000
 08128,-0.00008975,-0.00003816,0.00008729,0.00003618,-0.00016569,-0.000
 90091,0.00015327,-0.00000587,-0.00005911,-0.00013273,-0.00012317,-0.00
 007400,0.00007851,-0.00001346,-0.00000641,-0.00000835,0.00009004,0.004
 92279,0.00302321,-0.00313774,0.00145307,0.00166787,-0.00344937,-0.0006
 3528,0.00056554,-0.00146190,-0.00022484,-0.00065044,0.04426690,0.55076
 111,-0.00130742,-0.00038072,-0.00022948,0.00093902,-0.00027759,-0.0001
 4010,-0.00251452,-0.01115795,-0.01530708,0.00060511,-0.00231135,0.0004
 0108,0.05936142,-0.06293119,-0.13866789,0.00103859,0.00617563,-0.00017
 215,0.00036867,-0.00007056,-0.00054116,-0.00008134,-0.00020933,-0.0000
 4739,0.00007129,0.00003245,0.00005635,0.00003955,0.00000639,-0.0000729
 8,-0.00042806,-0.00076502,0.00016714,0.00011607,0.00005736,0.00005698,
 -0.00003353,0.00014743,0.00021926,0.00028407,0.00042880,-0.00013640,0.
 00150171,-0.00028733,0.00022332,-0.00035299,-0.00009201,-0.00020904,-0
 .00000220,-0.00012100,-0.00012149,-0.00030902,0.00021945,-0.00011018,-
 0.00092324,-0.00015341,0.00230532,-0.00017839,0.00008472,-0.00067607,0
 .00017288,0.00029275,-0.00061112,0.00010183,0.00001913,0.00000656,0.00
 311600,0.00038259,-0.00258949,-0.00146099,-0.00096365,0.00011653,-0.00
 173266,-0.00011787,0.00043399,-0.00424686,0.00054047,0.00247301,0.0380
 9966,-0.02886271,0.51072012,-0.00064636,-0.00048877,-0.00058042,-0.000
 28056,-0.00003987,-0.00003378,-0.00109687,-0.00193917,-0.00148348,0.00
 070179,-0.00012238,0.00005865,-0.01651134,-0.00091761,0.00227087,0.000
 38381,0.00025191,-0.00002438,0.00012941,0.00003344,0.00002389,-0.00002
 281,-0.00002791,-0.00003575,-0.00000586,0.00001592,0.00003720,-0.00000
 658,-0.00000584,-0.00000874,-0.00004346,-0.00008269,0.00001336,0.00001
 930,0.00001669,0.00001117,-0.00000108,0.00002170,-0.00001684,-0.000044
 43,0.00006337,-0.00001793,-0.00008364,-0.00006200,0.00005392,0.0000277
 5,-0.00003048,0.00003745,0.00002105,-0.00001619,-0.00005988,0.00003048
 ,0.00002287,0.00000289,-0.00004508,0.00001344,0.00010182,-0.00002239,0
 .00001703,-0.00002887,0.00001141,0.00001148,-0.00004297,0.00001787,0.0
 0004929,-0.00002350,-0.00026190,0.00271271,0.00293416,0.00026117,-0.00
 007243,-0.00009427,-0.00093014,-0.00041051,-0.00025664,0.00021214,-0.0
 0001518,-0.00012429,-0.30690761,-0.05163518,-0.01795635,0.33478144,-0.
 00114825,-0.00076462,-0.00031110,0.00031645,-0.00013021,-0.00006958,0.
 00321826,-0.00062902,-0.00153289,-0.00019984,-0.00007152,0.00027309,0.
 01927550,0.00265868,0.00137066,-0.00036463,-0.00011783,-0.00009808,0.0
 0008910,-0.00007079,0.00003332,-0.00002643,-0.00000384,0.00001364,0.00
 000402,0.00000620,-0.00003198,0.00001143,-0.00001462,-0.00001509,-0.00
 002479,0.00014659,-0.00002094,0.00002117,-0.00000392,-0.00001224,0.000
 00169,-0.00003042,0.00002588,-0.00001049,-0.00003485,-0.00001662,0.000
 08433,0.00001761,-0.00004267,-0.00005141,0.00001827,-0.00003574,-0.000
 01350,0.00002684,0.00002611,-0.00002789,0.00000146,-0.00000325,0.00004
 434,-0.00000638,-0.00001916,0.00002094,-0.00001594,0.00000172,-0.00003
 770,0.00002512,0.00002102,-0.00004931,0.00007852,0.00000029,0.00046412
 ,-0.00237800,-0.00242887,0.00010115,0.00051060,-0.00015067,0.00107398,
 0.00056720,-0.00034437,-0.00025629,-0.00001601,-0.00005272,-0.05754251
 ,-0.06191022,-0.00417582,0.05634651,0.06425594,-0.00106335,-0.00055580
 ,-0.00053896,0.00020382,-0.00004983,-0.00006130,0.00303531,-0.00044699
 ,0.00011719,-0.00026136,0.00016524,0.00014603,0.02663910,0.00602684,0.
 00016595,-0.00034092,-0.00023744,-0.00011301,0.00002456,-0.00002883,0.
 00005993,-0.00001230,0.00001127,0.00001542,-0.00001559,-0.00000445,-0.
 00003390,0.00000774,-0.00000038,-0.00000222,0.00006903,0.00003486,0.00
 001179,-0.00000091,-0.00000785,-0.00007899,-0.00002044,0.00000066,0.00
 000929,0.00007198,-0.00000404,0.00002931,-0.00000983,0.00004825,-0.000
 11307,-0.00002524,0.00001890,-0.00001938,0.00001651,0.00004056,0.00004
 616,-0.00002338,-0.00001097,0.00000911,0.00000428,0.00000835,0.0000065
 8,-0.00006080,0.00002616,-0.00004025,-0.00001717,-0.00000977,-0.000010
 00,-0.00002349,-0.00000034,0.00008495,0.00093967,-0.00324858,-0.003428
 66,-0.00030647,-0.00008035,-0.00008853,0.00168485,0.00000758,0.0001894
 2,0.00040485,-0.00020623,0.00024969,-0.02526683,-0.00571668,-0.0529776
 8,0.01747369,0.00987925,0.05626391,0.00011844,-0.00012950,-0.00029710,
 -0.00018017,0.00004234,0.00000916,-0.00281339,-0.00035858,-0.00033565,
 0.00018742,0.00014513,0.00035177,0.00013969,0.02050763,0.00454083,0.00
 064416,0.00083724,-0.00019129,0.00004877,-0.00007626,0.00001049,0.0000
 1626,-0.00000206,0.00000154,0.00000682,0.00002562,0.00005315,-0.000004
 10,0.00000661,-0.00002182,0.00003566,-0.00003941,0.00004174,-0.0000063
 3,-0.00004098,0.00002202,-0.00000865,0.00001627,0.00001120,0.00007454,
 0.00000448,0.00001270,0.00017942,-0.00020421,-0.00000236,-0.00001291,-
 0.00000776,-0.00002343,0.00000014,0.00001332,0.00001245,0.00000372,-0.
 00000457,0.00000815,-0.00012556,0.00012315,0.00017282,0.00000650,0.000
 00290,-0.00001715,0.00005678,0.00005844,-0.00006962,0.00001143,0.00003
 770,-0.00001716,0.00183672,0.00294011,-0.00038774,0.00028116,-0.001092
 01,0.00002088,0.00023878,-0.00009767,-0.00010815,-0.00022066,-0.000227
 95,0.00003818,-0.05656863,-0.04072638,0.00391377,-0.00153883,-0.031254
 66,0.00571072,0.05540420,0.00010369,-0.00016728,-0.00020473,-0.0003050
 6,0.00006252,0.00000731,0.00317228,0.00178527,0.00230515,-0.00000796,-
 0.00016976,-0.00037961,0.00084850,-0.01888085,-0.01106478,-0.00011777,
 -0.00127340,0.00003456,0.00007433,0.00023201,-0.00005033,-0.00000113,-
 0.00004191,-0.00006124,-0.00002740,-0.00002890,-0.00002689,-0.00001497
 ,0.00002166,0.00004324,0.00011891,-0.00016058,-0.00009653,-0.00005393,
 0.00001013,-0.00005484,-0.00001460,0.00000120,-0.00010483,-0.00001827,
 -0.00017232,-0.00001434,-0.00039403,0.00004945,0.00002660,0.00004873,0
 .00000284,0.00004407,0.00000908,0.00001039,-0.00002712,0.00010260,-0.0
 0006748,0.00000417,0.00024501,-0.00007406,-0.00029276,-0.00000634,0.00
 000494,0.00003681,-0.00005848,-0.00010398,0.00008382,-0.00001147,0.000
 02511,0.00000979,-0.00192975,0.00066908,0.00051550,0.00134260,0.000260
 54,-0.00024000,0.00002009,0.00057236,-0.00012970,0.00028893,-0.0002470
 9,0.00028695,-0.03755285,-0.29382646,0.04214379,-0.00106299,-0.0040837
 7,0.00148590,0.03740973,0.32356388,0.00004376,0.00001726,0.00006776,-0
 .00013061,0.00002488,-0.00000097,0.00363738,0.00008643,0.00065906,-0.0
 0020937,-0.00038570,-0.00075160,-0.00060927,-0.03309671,-0.00313099,-0
 .00041765,-0.00171960,0.00021978,0.00000286,0.00024708,-0.00014898,-0.
 00000403,-0.00004300,-0.00005057,-0.00001780,-0.00005332,-0.00005243,-
 0.00000675,0.00001453,0.00005143,-0.00004124,-0.00038463,0.00005483,-0
 .00003312,0.00004899,-0.00005856,-0.00000005,0.00007883,-0.00002563,0.
 00007425,0.00005573,0.00001399,-0.00042342,0.00008030,-0.00006969,0.00
 008791,0.00001470,0.00006925,-0.00000499,0.00001612,0.00000687,0.00008
 439,-0.00003502,0.00002430,0.00024639,-0.00007850,-0.00061118,0.000054
 48,-0.00005203,0.00018459,-0.00006965,-0.00008383,0.00019664,-0.000042
 98,-0.00002101,-0.00001000,-0.00179365,-0.00087270,0.00040786,0.000093
 01,0.00088065,0.00023635,-0.00031548,-0.00001936,-0.00004053,0.0003553
 7,0.00041832,-0.00030175,0.00562060,0.04568535,-0.05676697,-0.00086009
 ,-0.00315084,0.00026622,-0.01038488,-0.03743170,0.06342437,0.00012890,
 -0.00008733,0.00009584,-0.00010082,-0.00004244,-0.00001044,-0.00140282
 ,-0.00186430,0.00008389,0.00032708,0.00047022,0.00026038,0.00469005,-0
 .00038855,0.02140166,-0.00012625,-0.00005504,0.00002045,-0.00005465,-0
 .00002397,0.00016669,0.00001004,0.00004940,0.00003095,-0.00000643,0.00
 001228,0.00003037,0.00000010,-0.00000802,-0.00000875,-0.00008736,0.000
 05260,0.00003977,0.00000520,0.00001202,0.00002725,0.00002645,0.0000277
 4,0.00004738,-0.00001447,0.00007868,-0.00002309,0.00002622,0.00004863,
 0.00004712,0.00000735,0.00002365,-0.00001555,-0.00000859,0.00000777,0.
 00001822,-0.00002246,-0.00000425,-0.00000379,-0.00001626,0.00000588,-0
 .00017842,0.00007379,-0.00004339,0.00008231,0.00000650,0.00000633,0.00
 005450,-0.00002241,-0.00002094,-0.00006082,0.00365833,-0.00055639,0.00
 247616,-0.00027656,0.00008922,-0.00008083,0.00007983,0.00004937,-0.000
 23821,0.00047779,0.00024295,-0.00167966,-0.08231682,0.02133510,-0.0782
 0208,-0.00814867,0.00993469,-0.02883800,0.00218863,-0.00220749,0.00506
 461,0.08089832,0.00005221,-0.00004816,0.00024258,-0.00009927,0.0000339
 1,-0.00002805,0.00099679,0.00371634,-0.00164432,-0.00005711,-0.0011104
 5,-0.00066122,-0.00453769,0.00226130,-0.02488278,0.00017133,0.00033299
 ,0.00053204,0.00014393,0.00017154,-0.00022216,-0.00001603,-0.00011400,
 -0.00007026,-0.00001354,-0.00003258,-0.00003649,0.00000554,-0.00001836
 ,0.00000706,0.00007585,-0.00015880,0.00003874,-0.00003154,-0.00002088,
 -0.00004203,-0.00000816,-0.00003790,-0.00004484,0.00000404,-0.00015724
 ,0.00005972,0.00010271,-0.00007290,-0.00001944,0.00003685,-0.00002851,
 -0.00000962,-0.00003823,0.00001392,0.00001651,-0.00000664,-0.00000309,
 0.00000028,-0.00002821,-0.00005905,-0.00008459,0.00004331,-0.00003675,
 0.00008082,-0.00000290,0.00000493,0.00005200,-0.00001701,-0.00001587,-
 0.00002615,-0.00178442,-0.00010989,0.00012685,0.00050684,-0.00034685,0
 .00018938,-0.00013507,-0.00005149,-0.00001653,0.00011795,0.00000298,0.
 00086966,0.02221873,-0.07090666,0.06234655,-0.00264715,0.00196891,-0.0
 0714530,0.01209133,-0.00797355,0.02975876,-0.02714443,0.07279615,0.000
 08583,-0.00031112,0.00002574,-0.00031463,0.00005429,0.00001222,0.00306
 041,0.00768544,0.00000719,-0.00028176,-0.00159044,-0.00080550,0.000158
 20,-0.01078465,-0.02910047,0.00015231,-0.00136939,0.00025848,0.0003639
 7,0.00038997,-0.00022024,-0.00003432,-0.00017252,-0.00014414,-0.000043
 21,-0.00003864,-0.00005535,-0.00000683,-0.00002742,0.00002654,0.000115
 52,-0.00017615,0.00016692,-0.00004851,-0.00000638,-0.00005160,0.000007
 25,-0.00007322,-0.00010398,-0.00007684,-0.00017293,0.00015804,-0.00044
 344,-0.00005128,-0.00012988,0.00014256,-0.00000669,0.00011682,-0.00004
 530,0.00003442,0.00000711,0.00010331,-0.00003035,0.00004389,0.00023794
 ,0.00013277,-0.00067604,0.00008230,-0.00008061,0.00032271,-0.00001715,
 -0.00003681,0.00018458,-0.00002888,-0.00000173,-0.00004026,-0.00298928
 ,-0.00046340,0.00075534,0.00022852,0.00035772,-0.00018667,0.00023782,-
 0.00022349,0.00038769,0.00167161,0.00009221,0.00022510,-0.07726335,0.0
 6223816,-0.24780300,-0.00137090,0.00086766,-0.00016499,-0.00307521,0.0
 0315173,-0.00386345,0.07939208,-0.05938717,0.28064722\\0.00000884,-0.0
 0000104,0.00001684,-0.00000912,0.00000029,0.00002668,-0.00000019,0.000
 00029,0.00002968,0.00000995,-0.00000145,-0.00001363,-0.00000568,-0.000
 00189,-0.00001264,-0.00000800,0.00000091,-0.00000812,-0.00001910,-0.00
 000359,-0.00000302,-0.00001358,-0.00000191,-0.00000338,-0.00001255,0.0
 0000358,0.00000459,-0.00001165,0.00000095,0.,-0.00002016,0.00000360,-0
 .00000415,-0.00001205,-0.00000268,0.00000424,-0.00001408,0.00000260,-0
 .00000318,-0.00001143,-0.00000057,-0.00000010,0.00000150,-0.00000046,-
 0.00000878,0.00001131,0.00000009,-0.00001091,0.00000008,-0.00000081,-0
 .00001031,0.00000394,0.00000050,-0.00000725,0.00001199,0.00000139,0.00
 000313,0.00001409,0.00000031,0.00000206,0.00000895,0.00000051,0.000002
 74,0.00000856,-0.00000038,0.00000983,0.00000147,0.00000032,-0.00000806
 ,0.00000375,-0.00000091,-0.00000732,-0.00000088,0.00000092,-0.00001005
 ,0.00001181,-0.00000003,-0.00001100,0.00001200,-0.00000205,0.00000433,
 0.00000855,0.00000144,0.00001064,0.00000854,-0.00000117,0.00000337,0.0
 0001314,0.00000125,0.00000377\\\@


 YOU ARE IN A MAZE OF TWISTY LITTLE PASSAGES.
 Job cpu time:       0 days  0 hours 39 minutes 35.3 seconds.
 File lengths (MBytes):  RWF=    233 Int=      0 D2E=      0 Chk=      6 Scr=      1
 Normal termination of Gaussian 09 at Fri May 12 09:31:33 2023.
