 Entering Gaussian System, Link 0=g09
 Input=au-1to3-ts-2-af51-c-term-level3-freq-se-2-p.com
 Output=au-1to3-ts-2-af51-c-term-level3-freq-se-2-p.log
 Initial command:
 /home/scr/programs/g09/l1.exe "/home/scr/guest1/Gau-9699.inp" -scrdir="/home/scr/guest1/"
 Entering Link 1 = /home/scr/programs/g09/l1.exe PID=      9700.
  
 Copyright (c) 1988,1990,1992,1993,1995,1998,2003,2009,2013,
            Gaussian, Inc.  All Rights Reserved.
  
 This is part of the Gaussian(R) 09 program.  It is based on
 the Gaussian(R) 03 system (copyright 2003, Gaussian, Inc.),
 the Gaussian(R) 98 system (copyright 1998, Gaussian, Inc.),
 the Gaussian(R) 94 system (copyright 1995, Gaussian, Inc.),
 the Gaussian 92(TM) system (copyright 1992, Gaussian, Inc.),
 the Gaussian 90(TM) system (copyright 1990, Gaussian, Inc.),
 the Gaussian 88(TM) system (copyright 1988, Gaussian, Inc.),
 the Gaussian 86(TM) system (copyright 1986, Carnegie Mellon
 University), and the Gaussian 82(TM) system (copyright 1983,
 Carnegie Mellon University). Gaussian is a federally registered
 trademark of Gaussian, Inc.
  
 This software contains proprietary and confidential information,
 including trade secrets, belonging to Gaussian, Inc.
  
 This software is provided under written license and may be
 used, copied, transmitted, or stored only in accord with that
 written license.
  
 The following legend is applicable only to US Government
 contracts under FAR:
  
                    RESTRICTED RIGHTS LEGEND
  
 Use, reproduction and disclosure by the US Government is
 subject to restrictions as set forth in subparagraphs (a)
 and (c) of the Commercial Computer Software - Restricted
 Rights clause in FAR 52.227-19.
  
 Gaussian, Inc.
 340 Quinnipiac St., Bldg. 40, Wallingford CT 06492
  
  
 ---------------------------------------------------------------
 Warning -- This program may not be used in any manner that
 competes with the business of Gaussian, Inc. or will provide
 assistance to any competitor of Gaussian, Inc.  The licensee
 of this program is prohibited from giving any competitor of
 Gaussian, Inc. access to this program.  By using this program,
 the user acknowledges that Gaussian, Inc. is engaged in the
 business of creating and licensing software in the field of
 computational chemistry and represents and warrants to the
 licensee that it is not a competitor of Gaussian, Inc. and that
 it will not use this program in any manner prohibited above.
 ---------------------------------------------------------------
  

 Cite this work as:
 Gaussian 09, Revision D.01,
 M. J. Frisch, G. W. Trucks, H. B. Schlegel, G. E. Scuseria, 
 M. A. Robb, J. R. Cheeseman, G. Scalmani, V. Barone, B. Mennucci, 
 G. A. Petersson, H. Nakatsuji, M. Caricato, X. Li, H. P. Hratchian, 
 A. F. Izmaylov, J. Bloino, G. Zheng, J. L. Sonnenberg, M. Hada, 
 M. Ehara, K. Toyota, R. Fukuda, J. Hasegawa, M. Ishida, T. Nakajima, 
 Y. Honda, O. Kitao, H. Nakai, T. Vreven, J. A. Montgomery, Jr., 
 J. E. Peralta, F. Ogliaro, M. Bearpark, J. J. Heyd, E. Brothers, 
 K. N. Kudin, V. N. Staroverov, T. Keith, R. Kobayashi, J. Normand, 
 K. Raghavachari, A. Rendell, J. C. Burant, S. S. Iyengar, J. Tomasi, 
 M. Cossi, N. Rega, J. M. Millam, M. Klene, J. E. Knox, J. B. Cross, 
 V. Bakken, C. Adamo, J. Jaramillo, R. Gomperts, R. E. Stratmann, 
 O. Yazyev, A. J. Austin, R. Cammi, C. Pomelli, J. W. Ochterski, 
 R. L. Martin, K. Morokuma, V. G. Zakrzewski, G. A. Voth, 
 P. Salvador, J. J. Dannenberg, S. Dapprich, A. D. Daniels, 
 O. Farkas, J. B. Foresman, J. V. Ortiz, J. Cioslowski, 
 and D. J. Fox, Gaussian, Inc., Wallingford CT, 2013.
 
 ******************************************
 Gaussian 09:  EM64L-G09RevD.01 24-Apr-2013
                18-May-2023 
 ******************************************
 %mem=30000MB
 %nprocshared=8
 Will use up to    8 processors via shared memory.
 ----------------------------------------
 # opt freq=noraman b3lyp/gen pseudo=read
 ----------------------------------------
 1/14=-1,18=20,19=15,26=3,38=1/1,3;
 2/9=110,12=2,17=6,18=5,40=1/2;
 3/5=7,11=2,16=1,17=8,25=1,30=1,71=1,74=-5/1,2,3;
 4//1;
 5/5=2,38=5/2;
 6/7=2,8=2,9=2,10=2,28=1/1;
 7//1,2,3,16;
 1/14=-1,18=20,19=15,26=3/3(2);
 2/9=110/2;
 99//99;
 2/9=110/2;
 3/5=7,6=1,11=2,16=1,17=8,25=1,30=1,71=1,74=-5,82=7/1,2,3;
 4/5=5,16=3,69=1/1;
 5/5=2,38=5/2;
 7//1,2,3,16;
 1/14=-1,18=20,19=15,26=3/3(-5);
 2/9=110/2;
 6/7=2,8=2,9=2,10=2,19=2,28=1/1;
 99/9=1/99;
 -------------------
 Title Card Required
 -------------------
 Symbolic Z-matrix:
 Charge =  0 Multiplicity = 1
 Au                    1.51091  -1.44837  -0.34797 
 P                     3.51853   0.09911   0.09209 
 N                    -3.53456   7.14348  -0.44154 
 C                    -3.47574   5.72329  -0.08845 
 C                    -2.52389   4.95659  -1.02522 
 O                    -2.53269   5.18779  -2.22757 
 C                    -4.90099   5.1414   -0.22034 
 O                    -4.98911   3.77351   0.14718 
 N                    -1.65311   4.02062  -0.50608 
 C                    -1.44079   3.61922   0.86893 
 C                    -2.57781   2.77476   1.48248 
 O                    -3.23372   3.2256    2.41966 
 N                    -2.83708   1.53039   0.98943 
 C                    -2.492     0.96747  -0.32566 
 C                    -3.25063  -0.35428  -0.53544 
 O                    -3.71175  -0.66889  -1.6318 
 C                    -0.97641   0.70115  -0.56005 
 S                    -0.12235  -0.10906   0.91753 
 N                    -3.3337   -1.14501   0.58017 
 C                    -3.36377  -2.60095   0.45869 
 C                    -2.00158  -3.16609   0.9234 
 C                    -4.54717  -3.12517   1.33714 
 O                    -4.38566  -3.38075   2.52454 
 N                    -5.78262  -3.22488   0.74487 
 C                    -6.19516  -2.91168  -0.60772 
 C                    -7.71622  -2.80078  -0.65108 
 O                    -8.45787  -2.98615   0.29031 
 O                    -8.1419   -2.46844  -1.88018 
 H                    -5.57451   5.77551   0.381 
 H                    -5.20965   5.2008   -1.26901 
 H                    -4.83038   3.70725   1.10683 
 H                    -3.16988   5.63829   0.9594 
 H                    -3.57023   7.19027  -1.46044 
 H                    -2.66521   7.59167  -0.17187 
 H                    -1.35119   4.49355   1.52828 
 H                    -0.50024   3.07218   0.92852 
 H                    -1.07609   3.59741  -1.22827 
 H                    -0.46657   1.67023  -0.83328 
 H                    -0.92008   0.03087  -1.44197 
 H                    -2.83506   1.62838  -1.1276 
 H                    -3.69501   1.16371   1.38594 
 H                    -2.0638   -4.26827   1.03303 
 H                    -1.6949   -2.75544   1.89381 
 H                    -3.53769  -2.83215  -0.59628 
 H                    -2.75028  -0.83863   1.36106 
 H                    -5.91354  -3.70864  -1.31945 
 H                    -5.75228  -1.99187  -0.98101 
 H                    -6.52749  -3.46788   1.3914 
 H                    -9.11596  -2.42024  -1.8421 
 Se                   -0.51832  -3.06675  -0.50898 
 C                     4.75994  -0.70257   1.18094 
 C                     5.39898  -0.01246   2.22643 
 C                     5.12273  -2.03143   0.91945 
 C                     6.37871  -0.64217   2.98642 
 H                     5.1268    1.01886   2.44246 
 C                     6.09706  -2.66078   1.6803 
 H                     4.62953  -2.58178   0.10848 
 C                     6.72957  -1.96996   2.71961 
 H                     6.86669  -0.10621   3.79263 
 H                     6.36726  -3.6953    1.47283 
 H                     7.48531  -2.46132   3.32221 
 C                     4.43963   0.68297  -1.38258 
 C                     3.83253   0.63957  -2.64062 
 C                     5.74502   1.19258  -1.26017 
 C                     4.52282   1.11775  -3.76637 
 H                     2.84097   0.21782  -2.75579 
 C                     6.42152   1.6668   -2.37754 
 H                     6.23231   1.21501  -0.28506 
 C                     5.80513   1.63251  -3.63586 
 H                     4.03894   1.06718  -4.73694 
 H                     7.43196   2.05673  -2.27036 
 H                     6.33902   1.99135  -4.5116 
 C                     2.9752    1.60858   0.98429 
 C                     2.33067   1.47235   2.22499 
 C                     3.17066   2.90139   0.4545 
 C                     1.89739   2.59757   2.92454 
 H                     2.1666    0.47961   2.64765 
 C                     2.73508   4.02342   1.16273 
 H                     3.66065   3.03139  -0.50765 
 C                     2.09965   3.871     2.39555 
 H                     1.40499   2.47257   3.88304 
 H                     2.89907   5.00862   0.7443 
 H                     1.76144   4.74889   2.95257 
 Cl                    2.78629  -2.83278  -1.83812 
 

 GradGradGradGradGradGradGradGradGradGradGradGradGradGradGradGradGradGrad
 Berny optimization.
 Initialization pass.
                           ----------------------------
                           !    Initial Parameters    !
                           ! (Angstroms and Degrees)  !
 --------------------------                            --------------------------
 ! Name  Definition              Value          Derivative Info.                !
 --------------------------------------------------------------------------------
 ! R1    R(1,2)                  2.5727         estimate D2E/DX2                !
 ! R2    R(1,18)                 2.4623         estimate D2E/DX2                !
 ! R3    R(1,50)                 2.6005         estimate D2E/DX2                !
 ! R4    R(1,84)                 2.4008         estimate D2E/DX2                !
 ! R5    R(2,51)                 1.8356         estimate D2E/DX2                !
 ! R6    R(2,62)                 1.8341         estimate D2E/DX2                !
 ! R7    R(2,73)                 1.8357         estimate D2E/DX2                !
 ! R8    R(3,4)                  1.4646         estimate D2E/DX2                !
 ! R9    R(3,33)                 1.0206         estimate D2E/DX2                !
 ! R10   R(3,34)                 1.0146         estimate D2E/DX2                !
 ! R11   R(4,5)                  1.5399         estimate D2E/DX2                !
 ! R12   R(4,7)                  1.5451         estimate D2E/DX2                !
 ! R13   R(4,32)                 1.0949         estimate D2E/DX2                !
 ! R14   R(5,6)                  1.2244         estimate D2E/DX2                !
 ! R15   R(5,9)                  1.3798         estimate D2E/DX2                !
 ! R16   R(7,8)                  1.4191         estimate D2E/DX2                !
 ! R17   R(7,29)                 1.1033         estimate D2E/DX2                !
 ! R18   R(7,30)                 1.0948         estimate D2E/DX2                !
 ! R19   R(8,31)                 0.9749         estimate D2E/DX2                !
 ! R20   R(9,10)                 1.4481         estimate D2E/DX2                !
 ! R21   R(9,37)                 1.0167         estimate D2E/DX2                !
 ! R22   R(10,11)                1.5435         estimate D2E/DX2                !
 ! R23   R(10,35)                1.0987         estimate D2E/DX2                !
 ! R24   R(10,36)                1.0897         estimate D2E/DX2                !
 ! R25   R(11,12)                1.2295         estimate D2E/DX2                !
 ! R26   R(11,13)                1.3634         estimate D2E/DX2                !
 ! R27   R(13,14)                1.4715         estimate D2E/DX2                !
 ! R28   R(13,41)                1.0138         estimate D2E/DX2                !
 ! R29   R(14,15)                1.5384         estimate D2E/DX2                !
 ! R30   R(14,17)                1.5566         estimate D2E/DX2                !
 ! R31   R(14,40)                1.0943         estimate D2E/DX2                !
 ! R32   R(15,16)                1.2303         estimate D2E/DX2                !
 ! R33   R(15,19)                1.3699         estimate D2E/DX2                !
 ! R34   R(17,18)                1.8892         estimate D2E/DX2                !
 ! R35   R(17,38)                1.1286         estimate D2E/DX2                !
 ! R36   R(17,39)                1.1092         estimate D2E/DX2                !
 ! R37   R(19,20)                1.4613         estimate D2E/DX2                !
 ! R38   R(19,45)                1.0218         estimate D2E/DX2                !
 ! R39   R(20,21)                1.5462         estimate D2E/DX2                !
 ! R40   R(20,22)                1.5643         estimate D2E/DX2                !
 ! R41   R(20,44)                1.0939         estimate D2E/DX2                !
 ! R42   R(21,42)                1.1094         estimate D2E/DX2                !
 ! R43   R(21,43)                1.0974         estimate D2E/DX2                !
 ! R44   R(21,50)                2.0644         estimate D2E/DX2                !
 ! R45   R(22,23)                1.2253         estimate D2E/DX2                !
 ! R46   R(22,24)                1.3737         estimate D2E/DX2                !
 ! R47   R(24,25)                1.4484         estimate D2E/DX2                !
 ! R48   R(24,48)                1.0158         estimate D2E/DX2                !
 ! R49   R(25,26)                1.5257         estimate D2E/DX2                !
 ! R50   R(25,46)                1.105          estimate D2E/DX2                !
 ! R51   R(25,47)                1.087          estimate D2E/DX2                !
 ! R52   R(26,27)                1.2127         estimate D2E/DX2                !
 ! R53   R(26,28)                1.3425         estimate D2E/DX2                !
 ! R54   R(28,49)                0.976          estimate D2E/DX2                !
 ! R55   R(51,52)                1.4063         estimate D2E/DX2                !
 ! R56   R(51,53)                1.4021         estimate D2E/DX2                !
 ! R57   R(52,54)                1.3907         estimate D2E/DX2                !
 ! R58   R(52,55)                1.0883         estimate D2E/DX2                !
 ! R59   R(53,56)                1.3872         estimate D2E/DX2                !
 ! R60   R(53,57)                1.0972         estimate D2E/DX2                !
 ! R61   R(54,58)                1.399          estimate D2E/DX2                !
 ! R62   R(54,59)                1.0841         estimate D2E/DX2                !
 ! R63   R(56,58)                1.3991         estimate D2E/DX2                !
 ! R64   R(56,60)                1.0892         estimate D2E/DX2                !
 ! R65   R(58,61)                1.0843         estimate D2E/DX2                !
 ! R66   R(62,63)                1.3975         estimate D2E/DX2                !
 ! R67   R(62,64)                1.4067         estimate D2E/DX2                !
 ! R68   R(63,65)                1.4045         estimate D2E/DX2                !
 ! R69   R(63,66)                1.0837         estimate D2E/DX2                !
 ! R70   R(64,67)                1.3896         estimate D2E/DX2                !
 ! R71   R(64,68)                1.0903         estimate D2E/DX2                !
 ! R72   R(65,69)                1.3879         estimate D2E/DX2                !
 ! R73   R(65,70)                1.0857         estimate D2E/DX2                !
 ! R74   R(67,69)                1.4016         estimate D2E/DX2                !
 ! R75   R(67,71)                1.0884         estimate D2E/DX2                !
 ! R76   R(69,72)                1.0866         estimate D2E/DX2                !
 ! R77   R(73,74)                1.4048         estimate D2E/DX2                !
 ! R78   R(73,75)                1.4108         estimate D2E/DX2                !
 ! R79   R(74,76)                1.394          estimate D2E/DX2                !
 ! R80   R(74,77)                1.0914         estimate D2E/DX2                !
 ! R81   R(75,78)                1.3965         estimate D2E/DX2                !
 ! R82   R(75,79)                1.0875         estimate D2E/DX2                !
 ! R83   R(76,80)                1.3937         estimate D2E/DX2                !
 ! R84   R(76,81)                1.0848         estimate D2E/DX2                !
 ! R85   R(78,80)                1.3953         estimate D2E/DX2                !
 ! R86   R(78,82)                1.0829         estimate D2E/DX2                !
 ! R87   R(80,83)                1.0933         estimate D2E/DX2                !
 ! A1    A(2,1,18)              95.8848         estimate D2E/DX2                !
 ! A2    A(2,1,84)              92.205          estimate D2E/DX2                !
 ! A3    A(18,1,50)             81.5312         estimate D2E/DX2                !
 ! A4    A(50,1,84)             90.9878         estimate D2E/DX2                !
 ! A5    A(1,2,51)             111.5011         estimate D2E/DX2                !
 ! A6    A(1,2,62)             116.4772         estimate D2E/DX2                !
 ! A7    A(1,2,73)             110.2902         estimate D2E/DX2                !
 ! A8    A(51,2,62)            106.0411         estimate D2E/DX2                !
 ! A9    A(51,2,73)            105.7235         estimate D2E/DX2                !
 ! A10   A(62,2,73)            106.1206         estimate D2E/DX2                !
 ! A11   A(4,3,33)             106.6508         estimate D2E/DX2                !
 ! A12   A(4,3,34)             109.26           estimate D2E/DX2                !
 ! A13   A(33,3,34)            105.9652         estimate D2E/DX2                !
 ! A14   A(3,4,5)              111.1588         estimate D2E/DX2                !
 ! A15   A(3,4,7)              107.9119         estimate D2E/DX2                !
 ! A16   A(3,4,32)             108.4956         estimate D2E/DX2                !
 ! A17   A(5,4,7)              109.3133         estimate D2E/DX2                !
 ! A18   A(5,4,32)             111.769          estimate D2E/DX2                !
 ! A19   A(7,4,32)             108.0676         estimate D2E/DX2                !
 ! A20   A(4,5,6)              119.9275         estimate D2E/DX2                !
 ! A21   A(4,5,9)              119.9301         estimate D2E/DX2                !
 ! A22   A(6,5,9)              120.1389         estimate D2E/DX2                !
 ! A23   A(4,7,8)              113.4637         estimate D2E/DX2                !
 ! A24   A(4,7,29)             107.4649         estimate D2E/DX2                !
 ! A25   A(4,7,30)             108.7479         estimate D2E/DX2                !
 ! A26   A(8,7,29)             112.0194         estimate D2E/DX2                !
 ! A27   A(8,7,30)             106.4314         estimate D2E/DX2                !
 ! A28   A(29,7,30)            108.5896         estimate D2E/DX2                !
 ! A29   A(7,8,31)             108.0786         estimate D2E/DX2                !
 ! A30   A(5,9,10)             129.6312         estimate D2E/DX2                !
 ! A31   A(5,9,37)             111.919          estimate D2E/DX2                !
 ! A32   A(10,9,37)            118.4184         estimate D2E/DX2                !
 ! A33   A(9,10,11)            114.9044         estimate D2E/DX2                !
 ! A34   A(9,10,35)            111.1741         estimate D2E/DX2                !
 ! A35   A(9,10,36)            108.5203         estimate D2E/DX2                !
 ! A36   A(11,10,35)           104.8859         estimate D2E/DX2                !
 ! A37   A(11,10,36)           109.8425         estimate D2E/DX2                !
 ! A38   A(35,10,36)           107.2339         estimate D2E/DX2                !
 ! A39   A(10,11,12)           119.6933         estimate D2E/DX2                !
 ! A40   A(10,11,13)           119.7151         estimate D2E/DX2                !
 ! A41   A(12,11,13)           120.5883         estimate D2E/DX2                !
 ! A42   A(11,13,14)           128.8841         estimate D2E/DX2                !
 ! A43   A(11,13,41)           110.464          estimate D2E/DX2                !
 ! A44   A(14,13,41)           114.1821         estimate D2E/DX2                !
 ! A45   A(13,14,15)           109.5664         estimate D2E/DX2                !
 ! A46   A(13,14,17)           115.3633         estimate D2E/DX2                !
 ! A47   A(13,14,40)           110.5094         estimate D2E/DX2                !
 ! A48   A(15,14,17)           108.2172         estimate D2E/DX2                !
 ! A49   A(15,14,40)           105.3296         estimate D2E/DX2                !
 ! A50   A(17,14,40)           107.3502         estimate D2E/DX2                !
 ! A51   A(14,15,16)           121.7399         estimate D2E/DX2                !
 ! A52   A(14,15,19)           114.5055         estimate D2E/DX2                !
 ! A53   A(16,15,19)           123.7362         estimate D2E/DX2                !
 ! A54   A(14,17,18)           113.3147         estimate D2E/DX2                !
 ! A55   A(14,17,38)           109.2324         estimate D2E/DX2                !
 ! A56   A(14,17,39)           105.8179         estimate D2E/DX2                !
 ! A57   A(18,17,38)           110.6936         estimate D2E/DX2                !
 ! A58   A(18,17,39)           109.862          estimate D2E/DX2                !
 ! A59   A(38,17,39)           107.6655         estimate D2E/DX2                !
 ! A60   A(1,18,17)             97.537          estimate D2E/DX2                !
 ! A61   A(15,19,20)           120.5729         estimate D2E/DX2                !
 ! A62   A(15,19,45)           114.4984         estimate D2E/DX2                !
 ! A63   A(20,19,45)           111.9644         estimate D2E/DX2                !
 ! A64   A(19,20,21)           108.7259         estimate D2E/DX2                !
 ! A65   A(19,20,22)           107.6243         estimate D2E/DX2                !
 ! A66   A(19,20,44)           107.0985         estimate D2E/DX2                !
 ! A67   A(21,20,22)           112.037          estimate D2E/DX2                !
 ! A68   A(21,20,44)           110.6496         estimate D2E/DX2                !
 ! A69   A(22,20,44)           110.5162         estimate D2E/DX2                !
 ! A70   A(20,21,42)           110.0855         estimate D2E/DX2                !
 ! A71   A(20,21,43)           112.0347         estimate D2E/DX2                !
 ! A72   A(20,21,50)           114.0074         estimate D2E/DX2                !
 ! A73   A(42,21,43)           107.4613         estimate D2E/DX2                !
 ! A74   A(42,21,50)            99.0142         estimate D2E/DX2                !
 ! A75   A(43,21,50)           113.2497         estimate D2E/DX2                !
 ! A76   A(20,22,23)           120.957          estimate D2E/DX2                !
 ! A77   A(20,22,24)           117.5544         estimate D2E/DX2                !
 ! A78   A(23,22,24)           121.4141         estimate D2E/DX2                !
 ! A79   A(22,24,25)           130.0235         estimate D2E/DX2                !
 ! A80   A(22,24,48)           113.7302         estimate D2E/DX2                !
 ! A81   A(25,24,48)           115.9282         estimate D2E/DX2                !
 ! A82   A(24,25,26)           109.0394         estimate D2E/DX2                !
 ! A83   A(24,25,46)           111.8979         estimate D2E/DX2                !
 ! A84   A(24,25,47)           112.8074         estimate D2E/DX2                !
 ! A85   A(26,25,46)           106.7505         estimate D2E/DX2                !
 ! A86   A(26,25,47)           109.5686         estimate D2E/DX2                !
 ! A87   A(46,25,47)           106.5751         estimate D2E/DX2                !
 ! A88   A(25,26,27)           125.2073         estimate D2E/DX2                !
 ! A89   A(25,26,28)           111.1079         estimate D2E/DX2                !
 ! A90   A(27,26,28)           123.6847         estimate D2E/DX2                !
 ! A91   A(26,28,49)           107.0352         estimate D2E/DX2                !
 ! A92   A(1,50,21)            123.206          estimate D2E/DX2                !
 ! A93   A(2,51,52)            122.276          estimate D2E/DX2                !
 ! A94   A(2,51,53)            118.5737         estimate D2E/DX2                !
 ! A95   A(52,51,53)           119.0893         estimate D2E/DX2                !
 ! A96   A(51,52,54)           120.2786         estimate D2E/DX2                !
 ! A97   A(51,52,55)           119.9312         estimate D2E/DX2                !
 ! A98   A(54,52,55)           119.7901         estimate D2E/DX2                !
 ! A99   A(51,53,56)           120.6264         estimate D2E/DX2                !
 ! A100  A(51,53,57)           119.7981         estimate D2E/DX2                !
 ! A101  A(56,53,57)           119.575          estimate D2E/DX2                !
 ! A102  A(52,54,58)           120.1458         estimate D2E/DX2                !
 ! A103  A(52,54,59)           119.9762         estimate D2E/DX2                !
 ! A104  A(58,54,59)           119.8763         estimate D2E/DX2                !
 ! A105  A(53,56,58)           120.0634         estimate D2E/DX2                !
 ! A106  A(53,56,60)           120.046          estimate D2E/DX2                !
 ! A107  A(58,56,60)           119.8899         estimate D2E/DX2                !
 ! A108  A(54,58,56)           119.7956         estimate D2E/DX2                !
 ! A109  A(54,58,61)           119.9261         estimate D2E/DX2                !
 ! A110  A(56,58,61)           120.2772         estimate D2E/DX2                !
 ! A111  A(2,62,63)            119.7174         estimate D2E/DX2                !
 ! A112  A(2,62,64)            120.7574         estimate D2E/DX2                !
 ! A113  A(63,62,64)           119.519          estimate D2E/DX2                !
 ! A114  A(62,63,65)           119.8327         estimate D2E/DX2                !
 ! A115  A(62,63,66)           120.3477         estimate D2E/DX2                !
 ! A116  A(65,63,66)           119.8043         estimate D2E/DX2                !
 ! A117  A(62,64,67)           120.36           estimate D2E/DX2                !
 ! A118  A(62,64,68)           120.0017         estimate D2E/DX2                !
 ! A119  A(67,64,68)           119.6382         estimate D2E/DX2                !
 ! A120  A(63,65,69)           120.3317         estimate D2E/DX2                !
 ! A121  A(63,65,70)           118.7938         estimate D2E/DX2                !
 ! A122  A(69,65,70)           120.8717         estimate D2E/DX2                !
 ! A123  A(64,67,69)           119.963          estimate D2E/DX2                !
 ! A124  A(64,67,71)           119.6731         estimate D2E/DX2                !
 ! A125  A(69,67,71)           120.3624         estimate D2E/DX2                !
 ! A126  A(65,69,67)           119.9871         estimate D2E/DX2                !
 ! A127  A(65,69,72)           120.0428         estimate D2E/DX2                !
 ! A128  A(67,69,72)           119.9596         estimate D2E/DX2                !
 ! A129  A(2,73,74)            119.0343         estimate D2E/DX2                !
 ! A130  A(2,73,75)            122.0067         estimate D2E/DX2                !
 ! A131  A(74,73,75)           118.9545         estimate D2E/DX2                !
 ! A132  A(73,74,76)           120.5013         estimate D2E/DX2                !
 ! A133  A(73,74,77)           119.9493         estimate D2E/DX2                !
 ! A134  A(76,74,77)           119.5494         estimate D2E/DX2                !
 ! A135  A(73,75,78)           120.1731         estimate D2E/DX2                !
 ! A136  A(73,75,79)           120.279          estimate D2E/DX2                !
 ! A137  A(78,75,79)           119.5479         estimate D2E/DX2                !
 ! A138  A(74,76,80)           120.1296         estimate D2E/DX2                !
 ! A139  A(74,76,81)           119.437          estimate D2E/DX2                !
 ! A140  A(80,76,81)           120.4332         estimate D2E/DX2                !
 ! A141  A(75,78,80)           120.1559         estimate D2E/DX2                !
 ! A142  A(75,78,82)           119.1948         estimate D2E/DX2                !
 ! A143  A(80,78,82)           120.6491         estimate D2E/DX2                !
 ! A144  A(76,80,78)           120.0844         estimate D2E/DX2                !
 ! A145  A(76,80,83)           119.6962         estimate D2E/DX2                !
 ! A146  A(78,80,83)           120.2191         estimate D2E/DX2                !
 ! A147  L(2,1,50,84,-1)       183.1929         estimate D2E/DX2                !
 ! A148  L(18,1,84,50,-1)      172.519          estimate D2E/DX2                !
 ! A149  L(2,1,50,84,-2)       174.4877         estimate D2E/DX2                !
 ! A150  L(18,1,84,50,-2)      173.4565         estimate D2E/DX2                !
 ! D1    D(18,1,2,51)          111.8002         estimate D2E/DX2                !
 ! D2    D(18,1,2,62)         -126.3289         estimate D2E/DX2                !
 ! D3    D(18,1,2,73)           -5.3403         estimate D2E/DX2                !
 ! D4    D(84,1,2,51)          -73.9507         estimate D2E/DX2                !
 ! D5    D(84,1,2,62)           47.9202         estimate D2E/DX2                !
 ! D6    D(84,1,2,73)          168.9087         estimate D2E/DX2                !
 ! D7    D(51,2,50,21)          81.8549         estimate D2E/DX2                !
 ! D8    D(62,2,50,21)        -155.7846         estimate D2E/DX2                !
 ! D9    D(73,2,50,21)         -33.3503         estimate D2E/DX2                !
 ! D10   D(2,1,18,17)          102.6019         estimate D2E/DX2                !
 ! D11   D(50,1,18,17)         -83.2663         estimate D2E/DX2                !
 ! D12   D(18,1,50,21)         -28.6332         estimate D2E/DX2                !
 ! D13   D(84,1,50,21)         157.9103         estimate D2E/DX2                !
 ! D14   D(1,2,51,52)         -137.6334         estimate D2E/DX2                !
 ! D15   D(1,2,51,53)           45.2375         estimate D2E/DX2                !
 ! D16   D(62,2,51,52)          94.6421         estimate D2E/DX2                !
 ! D17   D(62,2,51,53)         -82.487          estimate D2E/DX2                !
 ! D18   D(73,2,51,52)         -17.7588         estimate D2E/DX2                !
 ! D19   D(73,2,51,53)         165.1121         estimate D2E/DX2                !
 ! D20   D(1,2,62,63)           19.5312         estimate D2E/DX2                !
 ! D21   D(1,2,62,64)         -161.382          estimate D2E/DX2                !
 ! D22   D(51,2,62,63)         144.2302         estimate D2E/DX2                !
 ! D23   D(51,2,62,64)         -36.6829         estimate D2E/DX2                !
 ! D24   D(73,2,62,63)        -103.6456         estimate D2E/DX2                !
 ! D25   D(73,2,62,64)          75.4412         estimate D2E/DX2                !
 ! D26   D(1,2,73,74)           58.0803         estimate D2E/DX2                !
 ! D27   D(1,2,73,75)         -121.1383         estimate D2E/DX2                !
 ! D28   D(51,2,73,74)         -62.5863         estimate D2E/DX2                !
 ! D29   D(51,2,73,75)         118.195          estimate D2E/DX2                !
 ! D30   D(62,2,73,74)        -174.9316         estimate D2E/DX2                !
 ! D31   D(62,2,73,75)           5.8498         estimate D2E/DX2                !
 ! D32   D(33,3,4,5)            41.7765         estimate D2E/DX2                !
 ! D33   D(33,3,4,7)           -78.0786         estimate D2E/DX2                !
 ! D34   D(33,3,4,32)          165.0616         estimate D2E/DX2                !
 ! D35   D(34,3,4,5)           -72.3412         estimate D2E/DX2                !
 ! D36   D(34,3,4,7)           167.8037         estimate D2E/DX2                !
 ! D37   D(34,3,4,32)           50.9438         estimate D2E/DX2                !
 ! D38   D(3,4,5,6)            -42.0446         estimate D2E/DX2                !
 ! D39   D(3,4,5,9)            137.2757         estimate D2E/DX2                !
 ! D40   D(7,4,5,6)             76.9742         estimate D2E/DX2                !
 ! D41   D(7,4,5,9)           -103.7056         estimate D2E/DX2                !
 ! D42   D(32,4,5,6)          -163.4338         estimate D2E/DX2                !
 ! D43   D(32,4,5,9)            15.8864         estimate D2E/DX2                !
 ! D44   D(3,4,7,8)           -177.6828         estimate D2E/DX2                !
 ! D45   D(3,4,7,29)           -53.2781         estimate D2E/DX2                !
 ! D46   D(3,4,7,30)            64.0901         estimate D2E/DX2                !
 ! D47   D(5,4,7,8)             61.3041         estimate D2E/DX2                !
 ! D48   D(5,4,7,29)          -174.2913         estimate D2E/DX2                !
 ! D49   D(5,4,7,30)           -56.923          estimate D2E/DX2                !
 ! D50   D(32,4,7,8)           -60.5454         estimate D2E/DX2                !
 ! D51   D(32,4,7,29)           63.8592         estimate D2E/DX2                !
 ! D52   D(32,4,7,30)         -178.7726         estimate D2E/DX2                !
 ! D53   D(4,5,9,10)            -1.4479         estimate D2E/DX2                !
 ! D54   D(4,5,9,37)          -179.3401         estimate D2E/DX2                !
 ! D55   D(6,5,9,10)           177.8709         estimate D2E/DX2                !
 ! D56   D(6,5,9,37)            -0.0214         estimate D2E/DX2                !
 ! D57   D(4,7,8,31)            67.6101         estimate D2E/DX2                !
 ! D58   D(29,7,8,31)          -54.2914         estimate D2E/DX2                !
 ! D59   D(30,7,8,31)         -172.8319         estimate D2E/DX2                !
 ! D60   D(5,9,10,11)           72.2634         estimate D2E/DX2                !
 ! D61   D(5,9,10,35)          -46.656          estimate D2E/DX2                !
 ! D62   D(5,9,10,36)         -164.3556         estimate D2E/DX2                !
 ! D63   D(37,9,10,11)        -109.96           estimate D2E/DX2                !
 ! D64   D(37,9,10,35)         131.1207         estimate D2E/DX2                !
 ! D65   D(37,9,10,36)          13.421          estimate D2E/DX2                !
 ! D66   D(9,10,11,12)        -115.1869         estimate D2E/DX2                !
 ! D67   D(9,10,11,13)          65.4721         estimate D2E/DX2                !
 ! D68   D(35,10,11,12)          7.1892         estimate D2E/DX2                !
 ! D69   D(35,10,11,13)       -172.1517         estimate D2E/DX2                !
 ! D70   D(36,10,11,12)        122.1397         estimate D2E/DX2                !
 ! D71   D(36,10,11,13)        -57.2013         estimate D2E/DX2                !
 ! D72   D(10,11,13,14)        -21.3002         estimate D2E/DX2                !
 ! D73   D(10,11,13,41)       -170.9135         estimate D2E/DX2                !
 ! D74   D(12,11,13,14)        159.3648         estimate D2E/DX2                !
 ! D75   D(12,11,13,41)          9.7515         estimate D2E/DX2                !
 ! D76   D(11,13,14,15)       -167.8605         estimate D2E/DX2                !
 ! D77   D(11,13,14,17)         69.7509         estimate D2E/DX2                !
 ! D78   D(11,13,14,40)        -52.2333         estimate D2E/DX2                !
 ! D79   D(41,13,14,15)        -19.1591         estimate D2E/DX2                !
 ! D80   D(41,13,14,17)       -141.5477         estimate D2E/DX2                !
 ! D81   D(41,13,14,40)         96.4681         estimate D2E/DX2                !
 ! D82   D(13,14,15,16)        141.8479         estimate D2E/DX2                !
 ! D83   D(13,14,15,19)        -39.6551         estimate D2E/DX2                !
 ! D84   D(17,14,15,16)        -91.5987         estimate D2E/DX2                !
 ! D85   D(17,14,15,19)         86.8983         estimate D2E/DX2                !
 ! D86   D(40,14,15,16)         22.9677         estimate D2E/DX2                !
 ! D87   D(40,14,15,19)       -158.5353         estimate D2E/DX2                !
 ! D88   D(13,14,17,18)         43.85           estimate D2E/DX2                !
 ! D89   D(13,14,17,38)        -80.0599         estimate D2E/DX2                !
 ! D90   D(13,14,17,39)        164.2893         estimate D2E/DX2                !
 ! D91   D(15,14,17,18)        -79.2564         estimate D2E/DX2                !
 ! D92   D(15,14,17,38)        156.8336         estimate D2E/DX2                !
 ! D93   D(15,14,17,39)         41.1829         estimate D2E/DX2                !
 ! D94   D(40,14,17,18)        167.5142         estimate D2E/DX2                !
 ! D95   D(40,14,17,38)         43.6043         estimate D2E/DX2                !
 ! D96   D(40,14,17,39)        -72.0465         estimate D2E/DX2                !
 ! D97   D(14,15,19,20)       -148.3002         estimate D2E/DX2                !
 ! D98   D(14,15,19,45)        -10.0029         estimate D2E/DX2                !
 ! D99   D(16,15,19,20)         30.1627         estimate D2E/DX2                !
 ! D100  D(16,15,19,45)        168.46           estimate D2E/DX2                !
 ! D101  D(14,17,18,1)         147.1002         estimate D2E/DX2                !
 ! D102  D(38,17,18,1)         -89.7915         estimate D2E/DX2                !
 ! D103  D(39,17,18,1)          28.9829         estimate D2E/DX2                !
 ! D104  D(15,19,20,21)        107.0441         estimate D2E/DX2                !
 ! D105  D(15,19,20,22)       -131.3967         estimate D2E/DX2                !
 ! D106  D(15,19,20,44)        -12.5504         estimate D2E/DX2                !
 ! D107  D(45,19,20,21)        -32.2064         estimate D2E/DX2                !
 ! D108  D(45,19,20,22)         89.3527         estimate D2E/DX2                !
 ! D109  D(45,19,20,44)       -151.801          estimate D2E/DX2                !
 ! D110  D(19,20,21,42)        168.8112         estimate D2E/DX2                !
 ! D111  D(19,20,21,43)         49.2954         estimate D2E/DX2                !
 ! D112  D(19,20,21,50)        -80.9776         estimate D2E/DX2                !
 ! D113  D(22,20,21,42)         49.988          estimate D2E/DX2                !
 ! D114  D(22,20,21,43)        -69.5278         estimate D2E/DX2                !
 ! D115  D(22,20,21,50)        160.1992         estimate D2E/DX2                !
 ! D116  D(44,20,21,42)        -73.8331         estimate D2E/DX2                !
 ! D117  D(44,20,21,43)        166.6512         estimate D2E/DX2                !
 ! D118  D(44,20,21,50)         36.3781         estimate D2E/DX2                !
 ! D119  D(19,20,22,23)        -87.8126         estimate D2E/DX2                !
 ! D120  D(19,20,22,24)         89.0921         estimate D2E/DX2                !
 ! D121  D(21,20,22,23)         31.659          estimate D2E/DX2                !
 ! D122  D(21,20,22,24)       -151.4362         estimate D2E/DX2                !
 ! D123  D(44,20,22,23)        155.5548         estimate D2E/DX2                !
 ! D124  D(44,20,22,24)        -27.5405         estimate D2E/DX2                !
 ! D125  D(20,21,50,1)         109.5495         estimate D2E/DX2                !
 ! D126  D(42,21,50,1)        -133.6235         estimate D2E/DX2                !
 ! D127  D(43,21,50,1)         -20.119          estimate D2E/DX2                !
 ! D128  D(20,22,24,25)         -0.1971         estimate D2E/DX2                !
 ! D129  D(20,22,24,48)       -173.3584         estimate D2E/DX2                !
 ! D130  D(23,22,24,25)        176.6926         estimate D2E/DX2                !
 ! D131  D(23,22,24,48)          3.5313         estimate D2E/DX2                !
 ! D132  D(22,24,25,26)       -163.4221         estimate D2E/DX2                !
 ! D133  D(22,24,25,46)         78.7183         estimate D2E/DX2                !
 ! D134  D(22,24,25,47)        -41.4511         estimate D2E/DX2                !
 ! D135  D(48,24,25,26)          9.6161         estimate D2E/DX2                !
 ! D136  D(48,24,25,46)       -108.2435         estimate D2E/DX2                !
 ! D137  D(48,24,25,47)        131.5871         estimate D2E/DX2                !
 ! D138  D(24,25,26,27)         -2.0438         estimate D2E/DX2                !
 ! D139  D(24,25,26,28)        178.0194         estimate D2E/DX2                !
 ! D140  D(46,25,26,27)        119.0129         estimate D2E/DX2                !
 ! D141  D(46,25,26,28)        -60.9239         estimate D2E/DX2                !
 ! D142  D(47,25,26,27)       -125.9528         estimate D2E/DX2                !
 ! D143  D(47,25,26,28)         54.1104         estimate D2E/DX2                !
 ! D144  D(25,26,28,49)        179.6126         estimate D2E/DX2                !
 ! D145  D(27,26,28,49)         -0.3254         estimate D2E/DX2                !
 ! D146  D(2,51,52,54)        -176.9865         estimate D2E/DX2                !
 ! D147  D(2,51,52,55)           2.9925         estimate D2E/DX2                !
 ! D148  D(53,51,52,54)          0.1285         estimate D2E/DX2                !
 ! D149  D(53,51,52,55)       -179.8926         estimate D2E/DX2                !
 ! D150  D(2,51,53,56)         177.2962         estimate D2E/DX2                !
 ! D151  D(2,51,53,57)          -2.9599         estimate D2E/DX2                !
 ! D152  D(52,51,53,56)          0.0737         estimate D2E/DX2                !
 ! D153  D(52,51,53,57)        179.8176         estimate D2E/DX2                !
 ! D154  D(51,52,54,58)         -0.349          estimate D2E/DX2                !
 ! D155  D(51,52,54,59)       -179.8685         estimate D2E/DX2                !
 ! D156  D(55,52,54,58)        179.672          estimate D2E/DX2                !
 ! D157  D(55,52,54,59)          0.1525         estimate D2E/DX2                !
 ! D158  D(51,53,56,58)         -0.0547         estimate D2E/DX2                !
 ! D159  D(51,53,56,60)        179.6286         estimate D2E/DX2                !
 ! D160  D(57,53,56,58)       -179.7992         estimate D2E/DX2                !
 ! D161  D(57,53,56,60)         -0.1158         estimate D2E/DX2                !
 ! D162  D(52,54,58,56)          0.3671         estimate D2E/DX2                !
 ! D163  D(52,54,58,61)       -179.2525         estimate D2E/DX2                !
 ! D164  D(59,54,58,56)        179.887          estimate D2E/DX2                !
 ! D165  D(59,54,58,61)          0.2674         estimate D2E/DX2                !
 ! D166  D(53,56,58,54)         -0.1652         estimate D2E/DX2                !
 ! D167  D(53,56,58,61)        179.4529         estimate D2E/DX2                !
 ! D168  D(60,56,58,54)       -179.8491         estimate D2E/DX2                !
 ! D169  D(60,56,58,61)         -0.2309         estimate D2E/DX2                !
 ! D170  D(2,62,63,65)         178.3739         estimate D2E/DX2                !
 ! D171  D(2,62,63,66)          -3.0491         estimate D2E/DX2                !
 ! D172  D(64,62,63,65)         -0.7243         estimate D2E/DX2                !
 ! D173  D(64,62,63,66)        177.8527         estimate D2E/DX2                !
 ! D174  D(2,62,64,67)        -178.2221         estimate D2E/DX2                !
 ! D175  D(2,62,64,68)           1.9121         estimate D2E/DX2                !
 ! D176  D(63,62,64,67)          0.8666         estimate D2E/DX2                !
 ! D177  D(63,62,64,68)       -178.9993         estimate D2E/DX2                !
 ! D178  D(62,63,65,69)          0.0349         estimate D2E/DX2                !
 ! D179  D(62,63,65,70)        179.4183         estimate D2E/DX2                !
 ! D180  D(66,63,65,69)       -178.5498         estimate D2E/DX2                !
 ! D181  D(66,63,65,70)          0.8335         estimate D2E/DX2                !
 ! D182  D(62,64,67,69)         -0.3143         estimate D2E/DX2                !
 ! D183  D(62,64,67,71)       -179.8715         estimate D2E/DX2                !
 ! D184  D(68,64,67,69)        179.552          estimate D2E/DX2                !
 ! D185  D(68,64,67,71)         -0.0051         estimate D2E/DX2                !
 ! D186  D(63,65,69,67)          0.5221         estimate D2E/DX2                !
 ! D187  D(63,65,69,72)        179.3421         estimate D2E/DX2                !
 ! D188  D(70,65,69,67)       -178.8483         estimate D2E/DX2                !
 ! D189  D(70,65,69,72)         -0.0282         estimate D2E/DX2                !
 ! D190  D(64,67,69,65)         -0.382          estimate D2E/DX2                !
 ! D191  D(64,67,69,72)       -179.203          estimate D2E/DX2                !
 ! D192  D(71,67,69,65)        179.1721         estimate D2E/DX2                !
 ! D193  D(71,67,69,72)          0.3511         estimate D2E/DX2                !
 ! D194  D(2,73,74,76)        -179.5711         estimate D2E/DX2                !
 ! D195  D(2,73,74,77)           0.4552         estimate D2E/DX2                !
 ! D196  D(75,73,74,76)         -0.3283         estimate D2E/DX2                !
 ! D197  D(75,73,74,77)        179.698          estimate D2E/DX2                !
 ! D198  D(2,73,75,78)         179.6328         estimate D2E/DX2                !
 ! D199  D(2,73,75,79)          -0.3359         estimate D2E/DX2                !
 ! D200  D(74,73,75,78)          0.4135         estimate D2E/DX2                !
 ! D201  D(74,73,75,79)       -179.5551         estimate D2E/DX2                !
 ! D202  D(73,74,76,80)          0.0801         estimate D2E/DX2                !
 ! D203  D(73,74,76,81)       -179.765          estimate D2E/DX2                !
 ! D204  D(77,74,76,80)       -179.9461         estimate D2E/DX2                !
 ! D205  D(77,74,76,81)          0.2088         estimate D2E/DX2                !
 ! D206  D(73,75,78,80)         -0.252          estimate D2E/DX2                !
 ! D207  D(73,75,78,82)        179.6011         estimate D2E/DX2                !
 ! D208  D(79,75,78,80)        179.7169         estimate D2E/DX2                !
 ! D209  D(79,75,78,82)         -0.4301         estimate D2E/DX2                !
 ! D210  D(74,76,80,78)          0.0878         estimate D2E/DX2                !
 ! D211  D(74,76,80,83)       -179.6945         estimate D2E/DX2                !
 ! D212  D(81,76,80,78)        179.9314         estimate D2E/DX2                !
 ! D213  D(81,76,80,83)          0.149          estimate D2E/DX2                !
 ! D214  D(75,78,80,76)         -0.0013         estimate D2E/DX2                !
 ! D215  D(75,78,80,83)        179.7799         estimate D2E/DX2                !
 ! D216  D(82,78,80,76)       -179.8521         estimate D2E/DX2                !
 ! D217  D(82,78,80,83)         -0.071          estimate D2E/DX2                !
 --------------------------------------------------------------------------------
 Trust Radius=3.00D-01 FncErr=1.00D-07 GrdErr=1.00D-06
 Number of steps in this run=    464 maximum allowed number of steps=    504.
 GradGradGradGradGradGradGradGradGradGradGradGradGradGradGradGradGradGrad

 Stoichiometry    C31H36AuClN5O7PSSe
 Framework group  C1[X(C31H36AuClN5O7PSSe)]
 Deg. of freedom   246
 Full point group                 C1      NOp   1
 Largest Abelian subgroup         C1      NOp   1
 Largest concise Abelian subgroup C1      NOp   1
                         Standard orientation:                         
 ---------------------------------------------------------------------
 Center     Atomic      Atomic             Coordinates (Angstroms)
 Number     Number       Type             X           Y           Z
 ---------------------------------------------------------------------
      1         79           0       -1.521287   -1.435913    0.345244
      2         15           0       -3.512471    0.135489   -0.084609
      3          7           0        3.619656    7.098887    0.461158
      4          6           0        3.544301    5.680819    0.102733
      5          6           0        2.585930    4.921124    1.038566
      6          8           0        2.599799    5.147561    2.241771
      7          6           0        4.963265    5.082611    0.229364
      8          8           0        5.035389    3.715259   -0.143605
      9          7           0        1.703716    3.996912    0.517676
     10          6           0        1.484085    3.603223   -0.858415
     11          6           0        2.610358    2.748555   -1.477623
     12          8           0        3.269297    3.195692   -2.414450
     13          7           0        2.856797    1.499477   -0.989907
     14          6           0        2.508208    0.935348    0.323732
     15          6           0        3.252519   -0.395557    0.526818
     16          8           0        3.712387   -0.719513    1.620985
     17          6           0        0.990235    0.684983    0.560309
     18         16           0        0.124146   -0.109950   -0.918557
     19          7           0        3.324459   -1.182842   -0.591993
     20          6           0        3.338580   -2.639484   -0.476180
     21          6           0        1.969231   -3.187649   -0.940169
     22          6           0        4.514246   -3.173424   -1.359147
     23          8           0        4.347438   -3.422598   -2.547178
     24          7           0        5.749742   -3.289164   -0.769887
     25          6           0        6.168553   -2.985803    0.583022
     26          6           0        7.690833   -2.891992    0.623581
     27          8           0        8.428419   -3.081949   -0.320090
     28          8           0        8.122745   -2.569163    1.853046
     29          1           0        5.642542    5.711517   -0.370960
     30          1           0        5.274740    5.134516    1.277592
     31          1           0        4.873944    3.654476   -1.103163
     32          1           0        3.235341    5.603275   -0.944782
     33          1           0        3.657956    7.141331    1.480148
     34          1           0        2.754791    7.557750    0.195052
     35          1           0        1.402847    4.481035   -1.514203
     36          1           0        0.537383    3.066910   -0.918114
     37          1           0        1.123523    3.577348    1.239456
     38          1           0        0.491774    1.658608    0.838345
     39          1           0        0.928280    0.011966    1.439761
     40          1           0        2.860257    1.589286    1.127477
     41          1           0        3.709769    1.124818   -1.389647
     42          1           0        2.018952   -4.290011   -1.054169
     43          1           0        1.665119   -2.769852   -1.908339
     44          1           0        3.512108   -2.876684    0.577519
     45          1           0        2.742867   -0.866971   -1.370467
     46          1           0        5.879560   -3.782325    1.292277
     47          1           0        5.736706   -2.062580    0.960777
     48          1           0        6.490515   -3.537927   -1.418922
     49          1           0        9.097195   -2.531648    1.813087
     50         34           0        0.490145   -3.077357    0.495716
     51          6           0       -4.764987   -0.648115   -1.173901
     52          6           0       -5.398473    0.053094   -2.215373
     53          6           0       -5.141995   -1.973862   -0.916750
     54          6           0       -6.386728   -0.562736   -2.975695
     55          1           0       -5.115282    1.082150   -2.428003
     56          6           0       -6.124844   -2.589393   -1.677944
     57          1           0       -4.653258   -2.532801   -0.108948
     58          6           0       -6.751781   -1.887572   -2.713249
     59          1           0       -6.870384   -0.018271   -3.778805
     60          1           0       -6.406106   -3.621642   -1.473883
     61          1           0       -7.514201   -2.368159   -3.316127
     62          6           0       -4.423951    0.723844    1.394249
     63          6           0       -3.814763    0.668832    2.650816
     64          6           0       -5.723838    1.248405    1.276569
     65          6           0       -4.497348    1.150298    3.779864
     66          1           0       -2.827712    0.235640    2.762270
     67          6           0       -6.392698    1.725789    2.397185
     68          1           0       -6.212876    1.280024    0.302590
     69          6           0       -5.774115    1.679777    3.654057
     70          1           0       -4.012047    1.090588    4.749205
     71          1           0       -7.398959    2.127345    2.293648
     72          1           0       -6.302161    2.041140    4.532295
     73          6           0       -2.954237    1.642260   -0.972140
     74          6           0       -2.313836    1.503678   -2.214726
     75          6           0       -3.134193    2.935105   -0.436969
     76          6           0       -1.869519    2.626714   -2.910860
     77          1           0       -2.161702    0.510816   -2.641546
     78          6           0       -2.687633    4.054963   -1.141807
     79          1           0       -3.620712    3.066829    0.526706
     80          6           0       -2.056496    3.900250   -2.376546
     81          1           0       -1.380534    2.499951   -3.870876
     82          1           0       -2.839781    5.040293   -0.719239
     83          1           0       -1.709698    4.776478   -2.930904
     84         17           0       -2.808891   -2.811812    1.832759
 ---------------------------------------------------------------------
 Rotational constants (GHZ):      0.0567234      0.0327097      0.0247022
 General basis read from cards:  (5D, 7F)
 ======================================================================================================
                                       Pseudopotential Parameters
 ======================================================================================================
  Center     Atomic      Valence      Angular      Power
  Number     Number     Electrons     Momentum     of R      Exponent        Coefficient   SO-Coeffient
 ======================================================================================================
    1         79           19
                                      G and up 
                                                     1      622.6287956      -60.00000000    0.00000000
                                                     2      136.2843607     -555.52923120    0.00000000
                                                     2       33.1549781     -168.00197850    0.00000000
                                                     2        9.9894895      -63.03998750    0.00000000
                                                     2        3.0481312       -4.25166810    0.00000000
                                      S - G
                                                     0      194.7374304        3.00000000    0.00000000
                                                     1      351.5327447       38.60208800    0.00000000
                                                     2      122.3270402      864.83707270    0.00000000
                                                     2       32.0914617      374.99355200    0.00000000
                                                     2        5.2451812      289.79101000    0.00000000
                                                     2        4.4916223     -152.45327730    0.00000000
                                      P - G
                                                     0      420.6158801        2.00000000    0.00000000
                                                     1      109.4417815       73.88856250    0.00000000
                                                     2       34.1714280      326.67298720    0.00000000
                                                     2        5.9879750      126.58145910    0.00000000
                                      D - G
                                                     0      219.2666158        3.00000000    0.00000000
                                                     1      122.7297786       55.67931490    0.00000000
                                                     2       63.1063369      449.19873350    0.00000000
                                                     2       18.3684520      215.02690910    0.00000000
                                                     2        4.4972844       64.08409950    0.00000000
                                      F - G
                                                     0      108.5506037        4.00000000    0.00000000
                                                     1       56.4795527       51.80653350    0.00000000
                                                     2       29.2069159      231.21831130    0.00000000
                                                     2        9.5440543      119.00473860    0.00000000
                                                     2        2.8965118       15.34241880    0.00000000
    2         15
                                   No pseudopotential on this center.
    3          7
                                   No pseudopotential on this center.
    4          6
                                   No pseudopotential on this center.
    5          6
                                   No pseudopotential on this center.
    6          8
                                   No pseudopotential on this center.
    7          6
                                   No pseudopotential on this center.
    8          8
                                   No pseudopotential on this center.
    9          7
                                   No pseudopotential on this center.
   10          6
                                   No pseudopotential on this center.
   11          6
                                   No pseudopotential on this center.
   12          8
                                   No pseudopotential on this center.
   13          7
                                   No pseudopotential on this center.
   14          6
                                   No pseudopotential on this center.
   15          6
                                   No pseudopotential on this center.
   16          8
                                   No pseudopotential on this center.
   17          6
                                   No pseudopotential on this center.
   18         16
                                   No pseudopotential on this center.
   19          7
                                   No pseudopotential on this center.
   20          6
                                   No pseudopotential on this center.
   21          6
                                   No pseudopotential on this center.
   22          6
                                   No pseudopotential on this center.
   23          8
                                   No pseudopotential on this center.
   24          7
                                   No pseudopotential on this center.
   25          6
                                   No pseudopotential on this center.
   26          6
                                   No pseudopotential on this center.
   27          8
                                   No pseudopotential on this center.
   28          8
                                   No pseudopotential on this center.
   29          1
                                   No pseudopotential on this center.
   30          1
                                   No pseudopotential on this center.
   31          1
                                   No pseudopotential on this center.
   32          1
                                   No pseudopotential on this center.
   33          1
                                   No pseudopotential on this center.
   34          1
                                   No pseudopotential on this center.
   35          1
                                   No pseudopotential on this center.
   36          1
                                   No pseudopotential on this center.
   37          1
                                   No pseudopotential on this center.
   38          1
                                   No pseudopotential on this center.
   39          1
                                   No pseudopotential on this center.
   40          1
                                   No pseudopotential on this center.
   41          1
                                   No pseudopotential on this center.
   42          1
                                   No pseudopotential on this center.
   43          1
                                   No pseudopotential on this center.
   44          1
                                   No pseudopotential on this center.
   45          1
                                   No pseudopotential on this center.
   46          1
                                   No pseudopotential on this center.
   47          1
                                   No pseudopotential on this center.
   48          1
                                   No pseudopotential on this center.
   49          1
                                   No pseudopotential on this center.
   50         34
                                   No pseudopotential on this center.
   51          6
                                   No pseudopotential on this center.
   52          6
                                   No pseudopotential on this center.
   53          6
                                   No pseudopotential on this center.
   54          6
                                   No pseudopotential on this center.
   55          1
                                   No pseudopotential on this center.
   56          6
                                   No pseudopotential on this center.
   57          1
                                   No pseudopotential on this center.
   58          6
                                   No pseudopotential on this center.
   59          1
                                   No pseudopotential on this center.
   60          1
                                   No pseudopotential on this center.
   61          1
                                   No pseudopotential on this center.
   62          6
                                   No pseudopotential on this center.
   63          6
                                   No pseudopotential on this center.
   64          6
                                   No pseudopotential on this center.
   65          6
                                   No pseudopotential on this center.
   66          1
                                   No pseudopotential on this center.
   67          6
                                   No pseudopotential on this center.
   68          1
                                   No pseudopotential on this center.
   69          6
                                   No pseudopotential on this center.
   70          1
                                   No pseudopotential on this center.
   71          1
                                   No pseudopotential on this center.
   72          1
                                   No pseudopotential on this center.
   73          6
                                   No pseudopotential on this center.
   74          6
                                   No pseudopotential on this center.
   75          6
                                   No pseudopotential on this center.
   76          6
                                   No pseudopotential on this center.
   77          1
                                   No pseudopotential on this center.
   78          6
                                   No pseudopotential on this center.
   79          1
                                   No pseudopotential on this center.
   80          6
                                   No pseudopotential on this center.
   81          1
                                   No pseudopotential on this center.
   82          1
                                   No pseudopotential on this center.
   83          1
                                   No pseudopotential on this center.
   84         17
                                   No pseudopotential on this center.
 ======================================================================================================
 There are   852 symmetry adapted cartesian basis functions of A   symmetry.
 There are   798 symmetry adapted basis functions of A   symmetry.
   798 basis functions,  1635 primitive gaussians,   852 cartesian basis functions
   207 alpha electrons      207 beta electrons
       nuclear repulsion energy      8366.1832497505 Hartrees.
 NAtoms=   84 NActive=   84 NUniq=   84 SFac= 1.00D+00 NAtFMM=   60 NAOKFM=T Big=T
 Integral buffers will be    131072 words long.
 Raffenetti 2 integral format.
 Two-electron integral symmetry is turned on.
 One-electron integrals computed using PRISM.
   1 Symmetry operations used in ECPInt.
 ECPInt:  NShTT=   40755 NPrTT=  255579 LenC2=   27163 LenP2D=   83861.
 LDataN:  DoStor=T MaxTD1= 7 Len=  274
 NBasis=   798 RedAO= T EigKep=  4.84D-04  NBF=   798
 NBsUse=   798 1.00D-06 EigRej= -1.00D+00 NBFU=   798
 Defaulting to unpruned grid for atomic number  79.
 ExpMin= 2.79D-02 ExpMax= 5.61D+05 ExpMxC= 5.42D+03 IAcc=3 IRadAn=         5 AccDes= 0.00D+00
 Harris functional with IExCor=  402 and IRadAn=       5 diagonalized for initial guess.
 HarFok:  IExCor=  402 AccDes= 0.00D+00 IRadAn=         5 IDoV= 1 UseB2=F ITyADJ=14
 ICtDFT=  3500011 ScaDFX=  1.000000  1.000000  1.000000  1.000000
 Defaulting to unpruned grid for atomic number  79.
 Defaulting to unpruned grid for atomic number  79.
 Defaulting to unpruned grid for atomic number  79.
 Defaulting to unpruned grid for atomic number  79.
 Defaulting to unpruned grid for atomic number  79.
 Defaulting to unpruned grid for atomic number  79.
 Defaulting to unpruned grid for atomic number  79.
 Defaulting to unpruned grid for atomic number  79.
 FoFCou: FMM=F IPFlag=           0 FMFlag=      100000 FMFlg1=        2001
         NFxFlg=           0 DoJE=T BraDBF=F KetDBF=T FulRan=T
         wScrn=  0.000000 ICntrl=     500 IOpCl=  0 I1Cent=   200000004 NGrid=           0
         NMat0=    1 NMatS0=      1 NMatT0=    0 NMatD0=    1 NMtDS0=    0 NMtDT0=    0
 Petite list used in FoFCou.
 Requested convergence on RMS density matrix=1.00D-08 within 128 cycles.
 Requested convergence on MAX density matrix=1.00D-06.
 Requested convergence on             energy=1.00D-06.
 No special actions if energy rises.
 Defaulting to unpruned grid for atomic number  79.
 Defaulting to unpruned grid for atomic number  79.
 Defaulting to unpruned grid for atomic number  79.
 Defaulting to unpruned grid for atomic number  79.
 Defaulting to unpruned grid for atomic number  79.
 Defaulting to unpruned grid for atomic number  79.
 Defaulting to unpruned grid for atomic number  79.
 Defaulting to unpruned grid for atomic number  79.
 EnCoef did     5 forward-backward iterations
 EnCoef did   100 forward-backward iterations
 SCF Done:  E(RB3LYP) =  -5737.47713941     A.U. after   20 cycles
            NFock= 20  Conv=0.81D-08     -V/T= 2.0177

 **********************************************************************

            Population analysis using the SCF density.

 **********************************************************************

 Orbital symmetries:
       Occupied  (A) (A) (A) (A) (A) (A) (A) (A) (A) (A) (A) (A)
                 (A) (A) (A) (A) (A) (A) (A) (A) (A) (A) (A) (A)
                 (A) (A) (A) (A) (A) (A) (A) (A) (A) (A) (A) (A)
                 (A) (A) (A) (A) (A) (A) (A) (A) (A) (A) (A) (A)
                 (A) (A) (A) (A) (A) (A) (A) (A) (A) (A) (A) (A)
                 (A) (A) (A) (A) (A) (A) (A) (A) (A) (A) (A) (A)
                 (A) (A) (A) (A) (A) (A) (A) (A) (A) (A) (A) (A)
                 (A) (A) (A) (A) (A) (A) (A) (A) (A) (A) (A) (A)
                 (A) (A) (A) (A) (A) (A) (A) (A) (A) (A) (A) (A)
                 (A) (A) (A) (A) (A) (A) (A) (A) (A) (A) (A) (A)
                 (A) (A) (A) (A) (A) (A) (A) (A) (A) (A) (A) (A)
                 (A) (A) (A) (A) (A) (A) (A) (A) (A) (A) (A) (A)
                 (A) (A) (A) (A) (A) (A) (A) (A) (A) (A) (A) (A)
                 (A) (A) (A) (A) (A) (A) (A) (A) (A) (A) (A) (A)
                 (A) (A) (A) (A) (A) (A) (A) (A) (A) (A) (A) (A)
                 (A) (A) (A) (A) (A) (A) (A) (A) (A) (A) (A) (A)
                 (A) (A) (A) (A) (A) (A) (A) (A) (A) (A) (A) (A)
                 (A) (A) (A)
       Virtual   (A) (A) (A) (A) (A) (A) (A) (A) (A) (A) (A) (A)
                 (A) (A) (A) (A) (A) (A) (A) (A) (A) (A) (A) (A)
                 (A) (A) (A) (A) (A) (A) (A) (A) (A) (A) (A) (A)
                 (A) (A) (A) (A) (A) (A) (A) (A) (A) (A) (A) (A)
                 (A) (A) (A) (A) (A) (A) (A) (A) (A) (A) (A) (A)
                 (A) (A) (A) (A) (A) (A) (A) (A) (A) (A) (A) (A)
                 (A) (A) (A) (A) (A) (A) (A) (A) (A) (A) (A) (A)
                 (A) (A) (A) (A) (A) (A) (A) (A) (A) (A) (A) (A)
                 (A) (A) (A) (A) (A) (A) (A) (A) (A) (A) (A) (A)
                 (A) (A) (A) (A) (A) (A) (A) (A) (A) (A) (A) (A)
                 (A) (A) (A) (A) (A) (A) (A) (A) (A) (A) (A) (A)
                 (A) (A) (A) (A) (A) (A) (A) (A) (A) (A) (A) (A)
                 (A) (A) (A) (A) (A) (A) (A) (A) (A) (A) (A) (A)
                 (A) (A) (A) (A) (A) (A) (A) (A) (A) (A) (A) (A)
                 (A) (A) (A) (A) (A) (A) (A) (A) (A) (A) (A) (A)
                 (A) (A) (A) (A) (A) (A) (A) (A) (A) (A) (A) (A)
                 (A) (A) (A) (A) (A) (A) (A) (A) (A) (A) (A) (A)
                 (A) (A) (A) (A) (A) (A) (A) (A) (A) (A) (A) (A)
                 (A) (A) (A) (A) (A) (A) (A) (A) (A) (A) (A) (A)
                 (A) (A) (A) (A) (A) (A) (A) (A) (A) (A) (A) (A)
                 (A) (A) (A) (A) (A) (A) (A) (A) (A) (A) (A) (A)
                 (A) (A) (A) (A) (A) (A) (A) (A) (A) (A) (A) (A)
                 (A) (A) (A) (A) (A) (A) (A) (A) (A) (A) (A) (A)
                 (A) (A) (A) (A) (A) (A) (A) (A) (A) (A) (A) (A)
                 (A) (A) (A) (A) (A) (A) (A) (A) (A) (A) (A) (A)
                 (A) (A) (A) (A) (A) (A) (A) (A) (A) (A) (A) (A)
                 (A) (A) (A) (A) (A) (A) (A) (A) (A) (A) (A) (A)
                 (A) (A) (A) (A) (A) (A) (A) (A) (A) (A) (A) (A)
                 (A) (A) (A) (A) (A) (A) (A) (A) (A) (A) (A) (A)
                 (A) (A) (A) (A) (A) (A) (A) (A) (A) (A) (A) (A)
                 (A) (A) (A) (A) (A) (A) (A) (A) (A) (A) (A) (A)
                 (A) (A) (A) (A) (A) (A) (A) (A) (A) (A) (A) (A)
                 (A) (A) (A) (A) (A) (A) (A) (A) (A) (A) (A) (A)
                 (A) (A) (A) (A) (A) (A) (A) (A) (A) (A) (A) (A)
                 (A) (A) (A) (A) (A) (A) (A) (A) (A) (A) (A) (A)
                 (A) (A) (A) (A) (A) (A) (A) (A) (A) (A) (A) (A)
                 (A) (A) (A) (A) (A) (A) (A) (A) (A) (A) (A) (A)
                 (A) (A) (A) (A) (A) (A) (A) (A) (A) (A) (A) (A)
                 (A) (A) (A) (A) (A) (A) (A) (A) (A) (A) (A) (A)
                 (A) (A) (A) (A) (A) (A) (A) (A) (A) (A) (A) (A)
                 (A) (A) (A) (A) (A) (A) (A) (A) (A) (A) (A) (A)
                 (A) (A) (A) (A) (A) (A) (A) (A) (A) (A) (A) (A)
                 (A) (A) (A) (A) (A) (A) (A) (A) (A) (A) (A) (A)
                 (A) (A) (A) (A) (A) (A) (A) (A) (A) (A) (A) (A)
                 (A) (A) (A) (A) (A) (A) (A) (A) (A) (A) (A) (A)
                 (A) (A) (A) (A) (A) (A) (A) (A) (A) (A) (A) (A)
                 (A) (A) (A) (A) (A) (A) (A) (A) (A) (A) (A) (A)
                 (A) (A) (A) (A) (A) (A) (A) (A) (A) (A) (A) (A)
                 (A) (A) (A) (A) (A) (A) (A) (A) (A) (A) (A) (A)
                 (A) (A) (A)
 The electronic state is 1-A.
 Alpha  occ. eigenvalues -- -453.56052-101.47846 -88.87358 -77.14632 -57.27964
 Alpha  occ. eigenvalues --  -52.05540 -52.05426 -52.05123 -19.20748 -19.15486
 Alpha  occ. eigenvalues --  -19.13264 -19.13193 -19.13097 -19.11622 -19.11183
 Alpha  occ. eigenvalues --  -14.37508 -14.36913 -14.36850 -14.35623 -14.30845
 Alpha  occ. eigenvalues --  -10.33715 -10.30607 -10.30229 -10.28987 -10.28657
 Alpha  occ. eigenvalues --  -10.25472 -10.24372 -10.24247 -10.24095 -10.24041
 Alpha  occ. eigenvalues --  -10.22911 -10.22751 -10.22655 -10.22161 -10.22057
 Alpha  occ. eigenvalues --  -10.22029 -10.21921 -10.21857 -10.21686 -10.21668
 Alpha  occ. eigenvalues --  -10.21665 -10.21476 -10.21402 -10.21390 -10.21280
 Alpha  occ. eigenvalues --  -10.21279 -10.21195 -10.21048 -10.21036 -10.20978
 Alpha  occ. eigenvalues --  -10.20748  -9.40843  -7.94579  -7.62934  -7.16979
 Alpha  occ. eigenvalues --   -7.16317  -7.16264  -6.62342  -5.90982  -5.90746
 Alpha  occ. eigenvalues --   -5.89972  -5.75972  -5.75637  -5.74618  -4.78492
 Alpha  occ. eigenvalues --   -4.78482  -4.78305  -4.23171  -2.37038  -2.36772
 Alpha  occ. eigenvalues --   -2.34923  -2.12135  -2.12126  -2.11283  -2.11012
 Alpha  occ. eigenvalues --   -2.10812  -1.12453  -1.05710  -1.04866  -1.03974
 Alpha  occ. eigenvalues --   -1.03567  -1.03128  -1.00945  -0.95311  -0.93673
 Alpha  occ. eigenvalues --   -0.92866  -0.92384  -0.88981  -0.88713  -0.88069
 Alpha  occ. eigenvalues --   -0.87846  -0.80683  -0.80538  -0.77904  -0.77681
 Alpha  occ. eigenvalues --   -0.77321  -0.77284  -0.76994  -0.76869  -0.75897
 Alpha  occ. eigenvalues --   -0.75611  -0.74856  -0.72416  -0.71612  -0.69067
 Alpha  occ. eigenvalues --   -0.68736  -0.64605  -0.63987  -0.63609  -0.63323
 Alpha  occ. eigenvalues --   -0.63223  -0.63092  -0.62386  -0.62196  -0.61577
 Alpha  occ. eigenvalues --   -0.59999  -0.59406  -0.58908  -0.57957  -0.57198
 Alpha  occ. eigenvalues --   -0.54717  -0.54623  -0.54308  -0.52966  -0.52477
 Alpha  occ. eigenvalues --   -0.51803  -0.51086  -0.50942  -0.50359  -0.50309
 Alpha  occ. eigenvalues --   -0.49425  -0.49295  -0.48861  -0.48643  -0.48387
 Alpha  occ. eigenvalues --   -0.48176  -0.47540  -0.47369  -0.47332  -0.46912
 Alpha  occ. eigenvalues --   -0.45822  -0.45523  -0.45124  -0.44877  -0.44651
 Alpha  occ. eigenvalues --   -0.44612  -0.44539  -0.44316  -0.44161  -0.43693
 Alpha  occ. eigenvalues --   -0.43618  -0.43313  -0.42736  -0.42418  -0.42316
 Alpha  occ. eigenvalues --   -0.41689  -0.41527  -0.41131  -0.40969  -0.40475
 Alpha  occ. eigenvalues --   -0.40351  -0.39744  -0.39577  -0.39517  -0.39206
 Alpha  occ. eigenvalues --   -0.38973  -0.38708  -0.38574  -0.38220  -0.37983
 Alpha  occ. eigenvalues --   -0.37624  -0.37559  -0.37238  -0.37168  -0.37097
 Alpha  occ. eigenvalues --   -0.37037  -0.36765  -0.35762  -0.35398  -0.34825
 Alpha  occ. eigenvalues --   -0.33492  -0.33490  -0.32875  -0.32214  -0.29702
 Alpha  occ. eigenvalues --   -0.29450  -0.29223  -0.28984  -0.28679  -0.28581
 Alpha  occ. eigenvalues --   -0.28291  -0.28230  -0.27769  -0.27630  -0.27461
 Alpha  occ. eigenvalues --   -0.27167  -0.27015  -0.26834  -0.26784  -0.26443
 Alpha  occ. eigenvalues --   -0.25384  -0.25273  -0.25145  -0.24532  -0.23698
 Alpha  occ. eigenvalues --   -0.23036  -0.21480
 Alpha virt. eigenvalues --   -0.13102  -0.05460  -0.05362  -0.04331  -0.03773
 Alpha virt. eigenvalues --   -0.02768  -0.02356  -0.02146  -0.01570  -0.01160
 Alpha virt. eigenvalues --   -0.00492   0.00515   0.01142   0.01425   0.02124
 Alpha virt. eigenvalues --    0.02729   0.04106   0.04922   0.05643   0.05768
 Alpha virt. eigenvalues --    0.06364   0.06731   0.07431   0.08094   0.08322
 Alpha virt. eigenvalues --    0.08627   0.09132   0.10145   0.10354   0.10554
 Alpha virt. eigenvalues --    0.11011   0.11267   0.11593   0.11893   0.12113
 Alpha virt. eigenvalues --    0.12282   0.12493   0.12906   0.13260   0.13568
 Alpha virt. eigenvalues --    0.13800   0.14301   0.14431   0.14605   0.14932
 Alpha virt. eigenvalues --    0.15140   0.15746   0.15896   0.16192   0.16386
 Alpha virt. eigenvalues --    0.16609   0.16751   0.17051   0.17399   0.17682
 Alpha virt. eigenvalues --    0.17939   0.18478   0.18518   0.18747   0.19063
 Alpha virt. eigenvalues --    0.19308   0.19557   0.19680   0.20373   0.20617
 Alpha virt. eigenvalues --    0.21030   0.21476   0.21899   0.22050   0.22481
 Alpha virt. eigenvalues --    0.23218   0.24177   0.24464   0.24799   0.24957
 Alpha virt. eigenvalues --    0.25337   0.25946   0.26347   0.26785   0.26802
 Alpha virt. eigenvalues --    0.26898   0.27577   0.28186   0.28629   0.28690
 Alpha virt. eigenvalues --    0.29189   0.29588   0.29752   0.30012   0.32016
 Alpha virt. eigenvalues --    0.32267   0.32483   0.32847   0.34150   0.34757
 Alpha virt. eigenvalues --    0.35067   0.35342   0.35445   0.36556   0.36612
 Alpha virt. eigenvalues --    0.36767   0.37375   0.37661   0.38269   0.39559
 Alpha virt. eigenvalues --    0.40269   0.40415   0.41692   0.42378   0.42760
 Alpha virt. eigenvalues --    0.44020   0.44536   0.45374   0.46295   0.46741
 Alpha virt. eigenvalues --    0.47525   0.48054   0.48846   0.49443   0.49793
 Alpha virt. eigenvalues --    0.50179   0.50520   0.51058   0.51212   0.51631
 Alpha virt. eigenvalues --    0.51940   0.52052   0.52149   0.52522   0.52833
 Alpha virt. eigenvalues --    0.53026   0.53404   0.53508   0.53708   0.54328
 Alpha virt. eigenvalues --    0.54561   0.54814   0.55214   0.55407   0.55566
 Alpha virt. eigenvalues --    0.55783   0.55908   0.56130   0.56639   0.56850
 Alpha virt. eigenvalues --    0.57093   0.57312   0.57681   0.57803   0.58124
 Alpha virt. eigenvalues --    0.58346   0.58571   0.58929   0.59095   0.59300
 Alpha virt. eigenvalues --    0.59549   0.59686   0.59848   0.60145   0.60453
 Alpha virt. eigenvalues --    0.61053   0.61411   0.61505   0.62427   0.62725
 Alpha virt. eigenvalues --    0.62848   0.63354   0.63531   0.64203   0.64301
 Alpha virt. eigenvalues --    0.64625   0.64841   0.65174   0.65422   0.65905
 Alpha virt. eigenvalues --    0.66161   0.66380   0.67322   0.67891   0.68547
 Alpha virt. eigenvalues --    0.68856   0.69211   0.69864   0.70078   0.70378
 Alpha virt. eigenvalues --    0.71086   0.71170   0.71776   0.72037   0.72303
 Alpha virt. eigenvalues --    0.72719   0.73243   0.73458   0.73808   0.74503
 Alpha virt. eigenvalues --    0.74851   0.75271   0.75778   0.75910   0.76555
 Alpha virt. eigenvalues --    0.76785   0.77630   0.77955   0.79007   0.79658
 Alpha virt. eigenvalues --    0.79754   0.80254   0.80610   0.81203   0.81636
 Alpha virt. eigenvalues --    0.81832   0.81859   0.82077   0.82187   0.82425
 Alpha virt. eigenvalues --    0.82495   0.82736   0.82807   0.83045   0.83239
 Alpha virt. eigenvalues --    0.83288   0.83393   0.83869   0.84398   0.84713
 Alpha virt. eigenvalues --    0.85222   0.85513   0.86106   0.86305   0.86580
 Alpha virt. eigenvalues --    0.86627   0.87267   0.87418   0.87724   0.88229
 Alpha virt. eigenvalues --    0.88310   0.88945   0.89049   0.89139   0.89606
 Alpha virt. eigenvalues --    0.89648   0.89917   0.90380   0.90616   0.90632
 Alpha virt. eigenvalues --    0.90780   0.91341   0.91551   0.91976   0.92270
 Alpha virt. eigenvalues --    0.92739   0.92822   0.93056   0.93185   0.93608
 Alpha virt. eigenvalues --    0.93757   0.93842   0.93905   0.94564   0.94914
 Alpha virt. eigenvalues --    0.95325   0.95785   0.96041   0.96705   0.97104
 Alpha virt. eigenvalues --    0.97217   0.97706   0.97922   0.98523   0.99161
 Alpha virt. eigenvalues --    0.99401   0.99572   1.00415   1.00722   1.01446
 Alpha virt. eigenvalues --    1.01729   1.02286   1.03017   1.03061   1.03472
 Alpha virt. eigenvalues --    1.03588   1.04584   1.05073   1.05352   1.05726
 Alpha virt. eigenvalues --    1.06458   1.06956   1.08418   1.08898   1.09393
 Alpha virt. eigenvalues --    1.09674   1.10044   1.10126   1.10732   1.11062
 Alpha virt. eigenvalues --    1.11542   1.11800   1.12053   1.12772   1.13235
 Alpha virt. eigenvalues --    1.13724   1.13892   1.14682   1.15025   1.15798
[...]
 000280,-0.00000264,-0.00000684,-0.00000142,-0.00004186,0.00003085,-0.0
 0001082,-0.00002989,0.00003246,0.00000899,-0.00002452,-0.00000061,-0.0
 0000957,-0.00001938,-0.00009440,0.00003035,-0.00020442,-0.00040508,-0.
 00034653,0.00006197,0.00004223,-0.00001139,-0.00000245,0.00001175,0.00
 000795,-0.00002238,-0.00000962,-0.00000839,0.00000020,-0.00001029,0.00
 001550,-0.00001042,0.00001052,0.00000305,-0.00000434,0.00000334,0.0000
 0218,0.00000133,-0.00000014,0.00000315,0.00001243,-0.00001967,0.000001
 68,-0.00000007,0.00000115,0.00000083,-0.00000239,-0.00000267,-0.000001
 83,-0.00000051,-0.00000504,-0.00000129,-0.00000074,-0.00000332,-0.0000
 0274,-0.00003039,-0.00002325,-0.00000911,0.00000450,0.00012459,-0.0000
 3123,0.00001633,0.00002276,-0.00000428,-0.00003419,-0.00001992,-0.0000
 4313,0.00000945,0.00001225,-0.00000340,0.00003085,-0.00000072,0.000021
 70,0.00000249,0.00001336,-0.00000123,0.00000159,0.00000081,0.00000026,
 -0.00000378,-0.00000341,-0.00000074,-0.00000737,0.00000057,-0.00000541
 ,-0.00000638,0.00000124,0.00000021,-0.00000203,0.00000179,0.00000034,-
 0.00001869,0.00001819,0.00002719,-0.00002618,0.00001289,0.00002790,0.0
 0000716,-0.00000900,0.00000558,0.00000437,0.00001042,-0.00000299,0.000
 00019,-0.00000711,-0.00000238,-0.00000066,-0.00000705,0.00000079,0.000
 00062,0.00000106,-0.00000361,-0.00000042,0.00000022,-0.00000281,0.0000
 0070,-0.00000434,0.00000036,-0.00000403,0.00000328,0.00000281,-0.00000
 045,0.00000083,0.00000195,-0.00082968,-0.00029023,-0.00014074,0.006799
 82,0.00173350,-0.00052392,0.00705529,0.00136694,0.00112904,0.00203744,
 0.00360680,0.00146635,-0.00006640,0.00018086,0.00011140,0.00221010,0.0
 0355365,0.00058673,0.00001557,0.00018198,-0.00001182,-0.05657026,0.071
 25384,0.01765512,-0.00344407,-0.00107451,-0.00024953,-0.00352795,-0.00
 114074,-0.00026232,0.04702094,0.00008624,0.00000442,-0.00001212,-0.000
 22791,0.00013533,0.00006176,0.00007787,-0.00005261,-0.00000186,-0.0000
 3511,0.00001822,0.00002427,-0.00025993,0.00032593,-0.00038595,0.000053
 52,-0.00010093,0.00022615,-0.00003513,-0.00006419,-0.00002936,0.000041
 43,0.00005066,0.00000988,0.00057551,0.00026959,0.00037283,-0.00007326,
 -0.00010174,0.00014505,-0.00010651,-0.00033461,-0.00006419,0.00005351,
 0.00012635,0.00002806,-0.00000265,0.00021957,0.00004973,0.00009247,-0.
 00005374,-0.00005921,-0.00002272,-0.00004744,-0.00000151,-0.00000636,0
 .00003190,0.00000992,-0.00000489,-0.00004225,0.00004234,-0.00004487,0.
 00000858,-0.00003714,-0.00003197,0.00005042,-0.00000736,0.00000117,-0.
 00002503,0.00001131,0.00001869,-0.00002770,-0.00000340,0.00002823,0.00
 001098,0.00000769,-0.00002053,0.00000508,-0.00000221,-0.00002011,0.000
 00274,-0.00000563,-0.00000337,-0.00000430,0.00000192,0.00001571,-0.000
 00544,0.00000669,-0.00001093,0.00000425,-0.00000200,-0.00000449,0.0000
 0516,-0.00000431,0.00001926,0.00000797,0.00000626,-0.00000300,0.000002
 62,0.00000449,-0.00002170,-0.00001451,-0.00000110,-0.00000170,-0.00000
 617,-0.00000082,-0.00003186,0.00002539,-0.00000596,-0.00001431,0.00002
 257,0.00000219,-0.00004674,0.00001528,-0.00000570,-0.00000956,-0.00012
 945,0.00001613,-0.00013053,-0.00047094,-0.00041792,0.00007887,-0.00000
 381,-0.00001597,0.00000408,0.00002846,0.00001670,-0.00002699,-0.000009
 37,-0.00000462,0.00000129,-0.00000753,0.00001912,-0.00001342,0.0000122
 6,0.00000087,-0.00000513,0.00000753,-0.00000073,0.00000329,-0.00000052
 ,0.00000308,0.00003295,-0.00002246,-0.00000290,0.00000127,0.00000218,-
 0.00000001,0.00000273,-0.00000177,-0.00000116,0.00000324,-0.00000445,-
 0.00000206,0.00000065,-0.00000333,-0.00000034,-0.00001989,-0.00002316,
 -0.00000918,0.00002320,-0.00004002,-0.00002258,0.00000517,-0.00000776,
 -0.00001720,0.00001195,0.00003143,-0.00001560,-0.00001569,-0.00001603,
 -0.00001374,-0.00002177,-0.00001334,0.00001275,0.00000965,0.00000619,0
 .00000962,0.00000097,0.00000324,0.00000102,-0.00000214,-0.00000686,0.0
 0000423,0.00000547,0.00000190,0.00000120,0.00000167,-0.00000306,0.0000
 0317,0.00000382,-0.00000296,0.00000305,0.00000217,-0.00009073,-0.00001
 491,0.00003708,-0.00000364,0.00000868,-0.00002995,-0.00001279,-0.00000
 541,0.00000260,0.00000274,0.00001261,0.00000387,0.00000502,0.00000280,
 -0.00000994,0.00000377,-0.00000777,-0.00000250,-0.00000101,0.00000228,
 0.00000456,0.00000245,0.00000035,-0.00000089,-0.00000027,-0.00000486,0
 .00000419,0.00000130,-0.00000280,0.00000177,-0.00000033,-0.00000426,-0
 .00045156,0.00052782,0.00041612,0.00174162,-0.00056273,0.00397599,0.00
 141037,0.00185727,-0.00129118,0.00491922,-0.01519883,-0.00753927,0.000
 24944,-0.00078241,-0.00044842,0.00158795,-0.00334713,0.00024405,0.0000
 6671,-0.00021787,0.00013662,0.07149544,-0.30742977,-0.06208237,-0.0011
 1105,0.00065223,0.00010897,-0.00104830,0.00049358,-0.00027751,-0.07883
 718,0.32432137,0.00004896,-0.00001536,-0.00001093,-0.00003564,0.000013
 48,-0.00007711,0.00006554,-0.00001270,-0.00001895,-0.00001877,-0.00000
 793,0.00001272,-0.00016445,-0.00014349,0.00020792,0.00026591,0.0001287
 3,-0.00009797,-0.00001751,-0.00004801,-0.00001511,0.00001481,0.0000417
 5,-0.00001016,0.00003702,0.00023588,-0.00003419,-0.00000511,-0.0000749
 7,0.00014831,-0.00001163,-0.00003407,-0.00005821,0.00000520,0.00001894
 ,-0.00000263,-0.00001652,0.00002694,0.00000643,0.00001838,-0.00001487,
 0.00001635,-0.00000553,-0.00001409,-0.00000301,-0.00000549,0.00000973,
 0.00000066,0.00000779,0.00000151,-0.00000223,0.00000181,0.00000640,0.0
 0000655,-0.00000043,0.00001494,-0.00000119,0.00000082,-0.00000765,0.00
 000195,0.00000535,-0.00000619,-0.00000122,0.00000785,0.00000217,0.0000
 0795,-0.00000459,0.00000169,-0.00000490,-0.00000725,0.00000135,-0.0000
 0424,-0.00000155,-0.00000182,0.00000161,0.00000449,-0.00000337,0.00000
 614,-0.00000267,0.00000213,-0.00000240,-0.00000146,0.00000343,-0.00000
 432,0.00001192,0.00000690,0.00000329,-0.00000709,0.00000018,-0.0000037
 8,-0.00000191,-0.00001057,0.00001003,0.00001850,-0.00000451,-0.0000159
 4,-0.00003356,0.00001215,-0.00000718,-0.00001988,0.00000765,0.00002383
 ,0.00004794,-0.00000109,-0.00002678,-0.00001141,0.00005923,-0.00000747
 ,-0.00009403,-0.00027099,-0.00008639,0.00001230,0.00000025,-0.00000945
 ,0.00000949,0.00001521,0.00001183,-0.00000159,-0.00000581,-0.00000648,
 0.00000214,-0.00000643,0.00000700,-0.00000308,0.00000379,0.00000112,-0
 .00000249,0.00000246,0.00000084,0.00000113,-0.00000038,0.00000074,0.00
 000305,-0.00000424,0.00000148,0.00000051,0.00000072,-0.00000030,0.0000
 0115,-0.00000063,-0.00000037,0.00000121,-0.00000142,-0.00000006,0.0000
 0002,-0.00000200,0.00000039,-0.00000663,-0.00001342,-0.00000583,-0.000
 03162,-0.00002288,0.00000158,-0.00000847,0.00001238,0.00001534,0.00002
 130,-0.00000957,0.00002441,0.00000982,-0.00000176,0.00000968,0.0000040
 9,0.00000340,-0.00001642,-0.00000880,-0.00000740,-0.00000278,0.0000000
 5,0.00000082,-0.00000320,0.00000426,0.00000745,-0.00000195,-0.00000062
 ,-0.00000025,0.00000169,0.00000197,-0.00000070,0.00000066,0.00000011,0
 .00000068,0.00000019,0.00001121,-0.00004942,-0.00003176,0.00003965,-0.
 00003965,0.00001321,-0.00004686,-0.00002060,0.00003045,-0.00000238,-0.
 00001067,0.00003541,0.00000590,0.00001679,-0.00000051,-0.00001081,0.00
 000249,-0.00001243,0.00000270,0.00000344,-0.00000198,0.00000825,0.0000
 0753,0.00001066,-0.00000175,0.00000052,-0.00000104,0.00000339,-0.00000
 071,-0.00000018,0.00000240,-0.00000044,-0.00000347,-0.00012427,0.00042
 189,-0.00108807,-0.00028664,0.00324218,-0.00326124,0.00092438,-0.00052
 200,-0.00572046,-0.00602293,0.02272230,0.01021559,-0.00035428,0.001158
 83,0.00037313,0.00775754,-0.03014433,-0.00183451,0.00039974,-0.0014483
 8,-0.00014404,0.01767160,-0.06179155,-0.07665726,-0.00008850,-0.000582
 62,0.00093548,-0.00031479,0.00032130,0.00103335,-0.01966520,0.06682053
 ,0.07611015,-0.03208910,0.02683062,0.02133920,-0.00140321,0.00191114,0
 .00108757,-0.00007581,0.00012504,-0.00000747,0.00000704,-0.00008432,-0
 .00000688,0.00020197,-0.00049299,0.00045212,0.00006198,0.00025662,-0.0
 0032360,0.00002354,-0.00018815,0.00007248,-0.00013491,0.00022316,-0.00
 012300,-0.00018584,0.00056409,-0.00010945,0.00006694,-0.00015831,0.000
 09991,0.00047661,-0.00104778,-0.00056504,-0.00049661,0.00036035,0.0003
 2062,-0.00037353,0.00084109,0.00002138,0.00050341,0.00008007,-0.000186
 24,0.00010051,0.00010884,0.00093147,-0.00005590,-0.00017938,-0.0006394
 3,0.00112221,-0.00033076,0.00042678,0.00056036,0.00203409,0.00309433,-
 0.00043524,0.00009305,-0.00027256,0.00004691,-0.00014264,0.00035723,0.
 00030870,0.00101294,0.00121001,0.00059325,0.00023228,0.00010477,-0.000
 34852,-0.00009537,-0.00007854,-0.00038744,-0.00010421,-0.00018801,-0.0
 0010466,0.00002938,0.00013363,0.00023161,-0.00006724,0.00028949,-0.000
 14756,0.00001691,-0.00012491,-0.00006835,0.00002992,-0.00022034,-0.000
 03036,0.00003387,0.00000464,0.00001059,0.00001307,-0.00001827,0.000124
 88,-0.00006723,0.00008924,0.00000505,-0.00002259,-0.00002274,0.0000410
 0,-0.00003502,0.00000582,0.00002977,-0.00002008,-0.00000485,-0.0000333
 8,0.00006003,-0.00002604,-0.00008272,-0.00010817,-0.00006921,-0.000127
 44,-0.00020141,-0.00001334,-0.00049038,0.00037784,-0.00039027,-0.00038
 514,0.00013510,-0.00035463,-0.00024659,-0.00000174,0.00002349,0.000064
 48,-0.00000303,0.00008006,0.00001198,-0.00043581,-0.00004961,-0.000525
 42,0.00007118,0.00002764,0.00002859,-0.00001522,-0.00008235,0.00047190
 ,-0.00000323,-0.00000399,0.00002129,0.00000211,-0.00002932,0.00007507,
 0.00001628,0.00001964,0.00005085,0.00002172,-0.00001772,0.00000719,0.0
 0000827,0.00004491,-0.01010951,-0.00277813,0.00342446,0.00023010,0.000
 52781,-0.00066863,0.00032861,-0.00034328,0.00015260,0.00034186,0.00047
 172,-0.00195771,-0.00007471,-0.00002935,0.00001835,-0.00011902,-0.0000
 9926,-0.00001568,-0.00014500,-0.00082708,-0.00012417,-0.00141447,-0.00
 089169,-0.00014847,-0.00011084,0.00010771,0.00006973,0.00000098,-0.000
 04220,0.00003486,0.00007770,0.00001231,0.00004046,-0.00010461,-0.00005
 819,-0.00001170,0.00053543,-0.00106194,0.00085318,-0.00059448,-0.00063
 644,0.00010533,0.00053273,-0.00033013,-0.00062144,0.00021277,0.0000361
 5,-0.00033548,0.00019373,0.00014327,-0.00003388,0.00034361,0.00003647,
 0.00022821,0.00003421,0.00011160,0.00001236,-0.00024297,-0.00000911,-0
 .00005093,-0.00000637,0.00004089,0.00003544,-0.00000687,0.00004160,-0.
 00003000,0.00000531,0.00000569,0.00001071,0.00007043,0.00028040,-0.000
 09743,0.00013670,-0.00035257,0.00008744,0.00013900,-0.00022742,0.00004
 575,0.00011788,0.00006656,-0.00017814,-0.00021506,0.00003459,-0.000050
 14,0.00005402,0.00003725,0.00003236,-0.00007055,0.00007898,-0.00003592
 ,0.00008277,-0.00011509,-0.00001528,-0.00004212,-0.00006951,-0.0000315
 6,-0.00002549,-0.00003058,-0.00000369,-0.00002854,-0.00001437,-0.00001
 345,0.04285322,0.02850351,-0.04042410,-0.02575008,0.00010509,-0.008508
 25,-0.00233726,0.00008254,-0.00010332,0.00000498,-0.00000812,0.0000688
 1,0.00001005,-0.00020071,0.00040154,-0.00034903,-0.00000390,-0.0002075
 6,0.00024392,-0.00003327,0.00011764,-0.00006207,0.00013252,-0.00014370
 ,0.00010187,0.00018216,-0.00042123,0.00009714,-0.00006615,0.00012190,-
 0.00006819,-0.00043252,0.00080689,0.00045860,0.00044035,-0.00025796,-0
 .00026400,0.00039229,-0.00062919,0.00005711,-0.00036250,-0.00016591,0.
 00014463,-0.00027575,-0.00054104,-0.00048330,0.00012431,0.00033138,0.0
 0037837,-0.00076471,0.00088252,0.00005231,0.00087884,0.00055947,-0.002
 51961,0.00046444,0.00035368,0.00009355,-0.00036674,-0.00055365,0.00023
 791,0.00005484,0.00085884,-0.00037443,-0.00029979,0.00005511,-0.000124
 36,0.00006995,0.00008396,-0.00002373,0.00004643,0.00004947,0.00008893,
 0.00004660,-0.00004961,-0.00004359,-0.00008103,0.00001376,-0.00011485,
 0.00004851,0.00000899,0.00004713,0.00002153,0.00001327,0.00008852,0.00
 002973,-0.00002461,-0.00000284,-0.00001047,-0.00000955,0.00001438,-0.0
 0011573,0.00004245,-0.00007659,-0.00000347,0.00001706,0.00001654,-0.00
 004289,0.00003151,-0.00000631,-0.00002767,0.00002033,0.00000664,0.0000
 2704,-0.00004463,0.00001882,0.00006652,0.00007407,0.00005639,0.0000601
 6,0.00014278,0.00000185,0.00036260,-0.00016735,0.00014196,0.00028408,-
 0.00021562,0.00029637,0.00023794,0.00001260,-0.00000731,-0.00004997,-0
 .00005500,-0.00009092,-0.00004619,-0.00016097,0.00015525,-0.00038079,-
 0.00014107,0.00035590,0.00001533,0.00002602,-0.00000116,-0.00044968,-0
 .00014833,-0.00005821,-0.00000437,0.00001001,0.00001260,-0.00005443,-0
 .00002680,-0.00002607,-0.00001781,-0.00004321,-0.00001981,-0.00000235,
 -0.00001952,-0.00002325,-0.00105536,0.00166871,0.00086237,0.00031924,0
 .00100740,0.00006685,0.00026560,-0.00002723,0.00017970,-0.00085088,0.0
 0025212,-0.00089606,-0.00003610,0.00025030,-0.00010703,0.00006384,0.00
 007006,-0.00001535,0.00017342,-0.00011892,0.00001160,-0.00076520,-0.00
 103296,-0.00095699,-0.00015261,-0.00011593,-0.00001784,0.00002983,0.00
 000309,0.00000955,-0.00002970,0.00000569,-0.00009727,-0.00000958,-0.00
 000128,0.00001406,-0.00031195,-0.00118164,0.00058504,0.00007986,-0.001
 52537,0.00084902,0.00080067,-0.00000043,-0.00069659,0.00028218,-0.0001
 7252,-0.00057706,-0.00032488,-0.00015251,0.00023010,0.00009051,-0.0000
 4509,0.00063059,-0.00002793,0.00001282,-0.00001675,-0.00058222,0.00004
 709,-0.00005831,0.00004098,-0.00006309,0.00001202,-0.00001288,-0.00003
 621,-0.00000229,-0.00003128,-0.00001173,0.00002039,-0.00104488,0.00004
 967,0.00008668,0.00005797,0.00002041,-0.00021479,0.00013153,-0.0002342
 1,0.00010922,-0.00003291,0.00003396,0.00003856,0.00011220,-0.00003086,
 0.00003889,0.00005431,0.00006741,0.00006093,-0.00002469,-0.00004496,-0
 .00004144,-0.00002298,0.00005245,-0.00002095,0.00002666,0.00001965,0.0
 0000925,0.00000768,-0.00000048,0.00000513,0.00000434,-0.00000880,-0.00
 000118,-0.02580106,0.04920145,0.02237666,-0.02497118,-0.03236543,0.000
 74182,-0.00367777,-0.00204466,0.00006217,-0.00008866,0.00000693,-0.000
 00708,0.00005827,0.00000934,-0.00016109,0.00037603,-0.00035824,-0.0000
 3371,-0.00018628,0.00025476,-0.00002186,0.00011878,-0.00006077,0.00011
 039,-0.00014455,0.00009428,0.00015972,-0.00041384,0.00009219,-0.000046
 20,0.00010586,-0.00006002,-0.00035361,0.00072316,0.00039867,0.00036521
 ,-0.00024601,-0.00022388,0.00025938,-0.00053374,0.00004957,-0.00042861
 ,-0.00043142,0.00022610,-0.00011906,-0.00029721,-0.00088246,0.00001402
 ,0.00027328,0.00061425,0.00038214,-0.00067434,-0.00113208,0.00092250,-
 0.00149471,0.00413871,0.00032276,-0.00000140,0.00027899,0.00023760,-0.
 00011122,-0.00032458,0.00047739,-0.00017642,0.00112655,-0.00037146,-0.
 00017699,-0.00007807,0.00016401,0.00005559,0.00005817,0.00026128,0.000
 08916,0.00016792,0.00007508,-0.00003782,-0.00014150,-0.00007505,0.0000
 4943,-0.00021017,0.00003828,-0.00001269,0.00009830,0.00002389,-0.00001
 377,0.00016591,0.00002319,-0.00002332,-0.00000208,-0.00000845,-0.00001
 018,0.00001462,-0.00009573,0.00004340,-0.00006623,-0.00000361,0.000015
 54,0.00001684,-0.00003388,0.00002561,-0.00000656,-0.00002076,0.0000155
 9,0.00000352,0.00002205,-0.00004068,0.00001735,0.00005702,0.00005868,0
 .00005823,0.00007231,0.00014993,-0.00000397,0.00054378,-0.00040726,0.0
 0032161,0.00029010,-0.00007298,-0.00015566,0.00028471,0.00001618,0.000
 01288,-0.00003615,-0.00001966,-0.00007888,-0.00002077,0.00009312,-0.00
 000405,-0.00025462,-0.00002954,0.00009786,0.00004808,-0.00001156,-0.00
 003348,-0.00037556,-0.00008099,-0.00002313,-0.00000394,0.00001816,0.00
 003020,-0.00004755,-0.00002540,-0.00002341,-0.00002359,-0.00001763,0.0
 0000998,0.00000194,-0.00001314,-0.00002976,0.00411467,0.00154733,-0.00
 206843,-0.00026271,0.00058359,-0.00010108,0.00002372,-0.00025814,0.000
 30193,-0.00041025,0.00052764,-0.00172001,-0.00002906,-0.00000126,-0.00
 001358,-0.00001075,-0.00006808,-0.00004271,-0.00029314,-0.00085518,-0.
 00008835,-0.00166058,-0.00133347,-0.00145813,-0.00016760,0.00016055,-0
 .00003683,0.00003398,-0.00003286,-0.00002393,0.00006725,0.00002418,-0.
 00004796,-0.00008104,-0.00006251,-0.00002311,0.00031460,0.00135956,-0.
 00044249,-0.00022594,0.00093804,-0.00030838,-0.00042576,0.00011021,0.0
 0039795,-0.00012685,0.00042062,0.00048002,0.00047187,-0.00019553,-0.00
 024236,-0.00001289,-0.00004411,-0.00024204,0.00008732,-0.00001563,-0.0
 0005676,0.00016421,-0.00005851,0.00020290,0.00000258,-0.00007222,0.000
 06840,0.00001868,-0.00001426,0.00002106,0.00002972,-0.00002819,-0.0000
 1353,-0.00042121,-0.00016853,0.00046029,-0.00004664,0.00021372,-0.0001
 4257,0.00001669,-0.00001082,-0.00013299,-0.00003262,0.00000506,0.00013
 585,0.00006959,-0.00002285,0.00006309,-0.00002571,-0.00001235,0.000066
 71,0.00004753,-0.00011875,0.00002001,-0.00003259,0.00006120,0.00000433
 ,0.00001627,0.00003701,0.00001651,0.00001569,-0.00000621,-0.00000266,0
 .00001196,0.00000211,0.00001202,-0.02703613,0.02954519,0.03490219\\0.0
 0000194,0.00000130,0.00000058,-0.00000312,0.00000401,-0.00000015,0.000
 00022,0.00000004,-0.00000165,-0.00000630,-0.00000230,-0.00000071,-0.00
 000041,-0.00000027,-0.00000484,-0.00000166,-0.00000040,0.00000136,0.00
 000140,-0.00000187,0.00000037,0.00000038,-0.00000054,-0.00000036,0.000
 00040,-0.00000255,-0.00000192,-0.00000220,0.00000128,-0.00000165,-0.00
 000038,0.00000070,0.00000040,-0.00000150,-0.00000128,-0.00000204,-0.00
 000162,0.00000166,-0.00000250,0.00000057,-0.00000326,0.00000108,-0.000
 00070,-0.00000116,0.00000285,0.00000070,-0.00000097,-0.00000129,0.0000
 0035,0.00000304,-0.00000416,-0.00000097,0.00000046,0.00000531,0.000003
 10,0.00000125,-0.00000401,0.00000036,-0.00000135,0.00000127,0.00000244
 ,0.00000136,-0.00000051,0.00000186,-0.00000564,-0.00000512,-0.00000007
 ,-0.00000016,0.00000310,0.00000051,0.00000254,-0.00000001,0.00000158,-
 0.00000248,0.00000114,0.00000188,-0.00000347,-0.00000218,0.00000081,-0
 .00000163,-0.00000105,0.00000081,-0.00000205,-0.00000029,-0.00000158,-
 0.00000071,-0.00000193,-0.00000162,-0.00000113,-0.00000185,-0.00000090
 ,-0.00000181,-0.00000157,-0.00000152,-0.00000044,-0.00000168,-0.000001
 94,-0.00000081,-0.00000168,-0.00000228,-0.00000072,-0.00000153,-0.0000
 0071,-0.00000040,-0.00000043,-0.00000068,-0.00000149,-0.00000085,-0.00
 000091,0.00000024,0.00000057,-0.00000120,0.00000113,0.00000083,-0.0000
 0131,-0.00000062,0.00000046,0.00000107,-0.00000008,-0.00000007,0.00000
 052,-0.00000086,-0.00000093,0.00000137,-0.00000172,0.00000003,-0.00000
 008,-0.00000034,0.00000063,0.00000164,-0.00000057,0.00000097,-0.000001
 18,-0.00000135,0.00000025,0.00000163,-0.00000203,-0.00000060,0.0000004
 5,-0.00000069,-0.00000044,0.00000137,-0.00000175,-0.00000084,0.0000016
 0,-0.00000223,-0.00000121,-0.00000055,-0.00000126,0.00000106,0.0000006
 3,-0.00000303,0.00000238,-0.00000131,0.00000159,0.00000073,0.00000085,
 0.00000372,0.00000118,0.00000043,0.00000249,0.00000119,-0.00000085,0.0
 0000211,0.00000116,0.00000008,0.00000205,0.00000150,0.00000026,0.00000
 104,0.00000161,0.00000014,0.00000209,0.00000162,-0.00000086,0.00000230
 ,0.00000165,0.00000068,0.00000180,0.00000165,-0.00000017,0.00000241,0.
 00000191,0.00000321,0.00000030,0.00000108,0.00000023,0.00000179,-0.000
 00089,0.00000133,0.00000219,0.00000094,-0.00000008,-0.00000003,0.00000
 160,0.00000151,-0.00000078,0.00000097,0.00000052,0.00000116,0.00000135
 ,-0.00000045,0.00000099,0.00000053,0.00000171,0.00000054,0.00000157,0.
 00000140,0.00000021,0.00000064,0.00000098,0.00000097,0.00000111,0.0000
 0121,0.00000073,0.00000102,-0.00000014,0.00000188,-0.00000184,-0.00000
 076,0.00000066,0.00000125,-0.00000087,0.00000022,0.00000172,-0.0000021
 0,-0.00000010,0.00000020,-0.00000049,0.00000142,0.00000073,0.,0.000000
 23,-0.00000044,0.00000047,-0.00000005,-0.00000021,-0.00000082,0.000000
 59,-0.00000008,-0.00000072,0.00000126,0.00000012,-0.00000065,0.0000004
 7,0.,-0.00000183,0.00000082,-0.00000041,0.00000293,-0.00000069,0.00000
 030\\\@


 EXPERIENCE IS A WONDERFUL THING.  IT ENABLES
 YOU TO RECOGNIZE A MISTAKE WHEN YOU MAKE IT AGAIN.
           - BACK OF A SUGAR PACKET
 Job cpu time:       0 days 13 hours 21 minutes 19.4 seconds.
 File lengths (MBytes):  RWF=   6508 Int=      0 D2E=      0 Chk=     53 Scr=      1
 Normal termination of Gaussian 09 at Thu May 18 21:46:03 2023.
