 Entering Gaussian System, Link 0=g09
 Input=au-1to3-ts-2-af51-c-term-level3-freq-se-2.com
 Output=au-1to3-ts-2-af51-c-term-level3-freq-se-2.log
 Initial command:
 /opt/versatushpc/softwares/gaussian-09d01//g09/l1.exe "/tmp/Gau-5987.inp" -scrdir="/tmp/"
 Entering Link 1 = /opt/versatushpc/softwares/gaussian-09d01//g09/l1.exe PID=      5988.
  
 Copyright (c) 1988,1990,1992,1993,1995,1998,2003,2009,2013,
            Gaussian, Inc.  All Rights Reserved.
  
 This is part of the Gaussian(R) 09 program.  It is based on
 the Gaussian(R) 03 system (copyright 2003, Gaussian, Inc.),
 the Gaussian(R) 98 system (copyright 1998, Gaussian, Inc.),
 the Gaussian(R) 94 system (copyright 1995, Gaussian, Inc.),
 the Gaussian 92(TM) system (copyright 1992, Gaussian, Inc.),
 the Gaussian 90(TM) system (copyright 1990, Gaussian, Inc.),
 the Gaussian 88(TM) system (copyright 1988, Gaussian, Inc.),
 the Gaussian 86(TM) system (copyright 1986, Carnegie Mellon
 University), and the Gaussian 82(TM) system (copyright 1983,
 Carnegie Mellon University). Gaussian is a federally registered
 trademark of Gaussian, Inc.
  
 This software contains proprietary and confidential information,
 including trade secrets, belonging to Gaussian, Inc.
  
 This software is provided under written license and may be
 used, copied, transmitted, or stored only in accord with that
 written license.
  
 The following legend is applicable only to US Government
 contracts under FAR:
  
                    RESTRICTED RIGHTS LEGEND
  
 Use, reproduction and disclosure by the US Government is
 subject to restrictions as set forth in subparagraphs (a)
 and (c) of the Commercial Computer Software - Restricted
 Rights clause in FAR 52.227-19.
  
 Gaussian, Inc.
 340 Quinnipiac St., Bldg. 40, Wallingford CT 06492
  
  
 ---------------------------------------------------------------
 Warning -- This program may not be used in any manner that
 competes with the business of Gaussian, Inc. or will provide
 assistance to any competitor of Gaussian, Inc.  The licensee
 of this program is prohibited from giving any competitor of
 Gaussian, Inc. access to this program.  By using this program,
 the user acknowledges that Gaussian, Inc. is engaged in the
 business of creating and licensing software in the field of
 computational chemistry and represents and warrants to the
 licensee that it is not a competitor of Gaussian, Inc. and that
 it will not use this program in any manner prohibited above.
 ---------------------------------------------------------------
  

 Cite this work as:
 Gaussian 09, Revision D.01,
 M. J. Frisch, G. W. Trucks, H. B. Schlegel, G. E. Scuseria, 
 M. A. Robb, J. R. Cheeseman, G. Scalmani, V. Barone, B. Mennucci, 
 G. A. Petersson, H. Nakatsuji, M. Caricato, X. Li, H. P. Hratchian, 
 A. F. Izmaylov, J. Bloino, G. Zheng, J. L. Sonnenberg, M. Hada, 
 M. Ehara, K. Toyota, R. Fukuda, J. Hasegawa, M. Ishida, T. Nakajima, 
 Y. Honda, O. Kitao, H. Nakai, T. Vreven, J. A. Montgomery, Jr., 
 J. E. Peralta, F. Ogliaro, M. Bearpark, J. J. Heyd, E. Brothers, 
 K. N. Kudin, V. N. Staroverov, T. Keith, R. Kobayashi, J. Normand, 
 K. Raghavachari, A. Rendell, J. C. Burant, S. S. Iyengar, J. Tomasi, 
 M. Cossi, N. Rega, J. M. Millam, M. Klene, J. E. Knox, J. B. Cross, 
 V. Bakken, C. Adamo, J. Jaramillo, R. Gomperts, R. E. Stratmann, 
 O. Yazyev, A. J. Austin, R. Cammi, C. Pomelli, J. W. Ochterski, 
 R. L. Martin, K. Morokuma, V. G. Zakrzewski, G. A. Voth, 
 P. Salvador, J. J. Dannenberg, S. Dapprich, A. D. Daniels, 
 O. Farkas, J. B. Foresman, J. V. Ortiz, J. Cioslowski, 
 and D. J. Fox, Gaussian, Inc., Wallingford CT, 2013.
 
 ******************************************
 Gaussian 09:  ES64L-G09RevD.01 24-Apr-2013
                11-May-2023 
 ******************************************
 %chk=au-1to3-ts-2-af51-c-term-level3-freq-se-2.chk
 %mem=30000MB
 %nprocshared=8
 Will use up to    8 processors via shared memory.
 ----------------------------------------------------------------
 # opt=(ts,readfc,noeigentest) freq=noraman b3lyp/gen pseudo=read
 ----------------------------------------------------------------
 1/5=1,10=3,11=1,14=-1,18=20,26=3,38=1/1,3;
 2/9=110,12=2,17=6,18=5,40=1/2;
 3/5=7,11=2,16=1,17=8,25=1,30=1,71=1,74=-5/1,2,3;
 4//1;
 5/5=2,38=5/2;
 6/7=2,8=2,9=2,10=2,28=1/1;
 7//1,2,3,16;
 1/5=1,11=1,14=-1,18=20,26=3/3(2);
 2/9=110/2;
 99//99;
 2/9=110/2;
 3/5=7,6=1,11=2,16=1,17=8,25=1,30=1,71=1,74=-5,82=7/1,2,3;
 4/5=5,16=3,69=1/1;
 5/5=2,38=5/2;
 7//1,2,3,16;
 1/5=1,11=1,14=-1,18=20,26=3/3(-5);
 2/9=110/2;
 6/7=2,8=2,9=2,10=2,19=2,28=1/1;
 99/9=1/99;
 -------------------
 Title Card Required
 -------------------
 Symbolic Z-matrix:
 Charge =  0 Multiplicity = 1
 Au                   -0.10844   0.84943   0.22604 
 P                     0.00228   3.3935   -0.066 
 N                     9.80309   1.93705   1.47667 
 C                     8.70171   1.20915   0.84286 
 C                     7.40991   1.32083   1.6739 
 O                     7.46026   1.24413   2.8968 
 C                     9.114    -0.27588   0.73503 
 O                     8.14471  -1.08579   0.08859 
 N                     6.19953   1.51923   1.04947 
 C                     5.92064   1.70576  -0.36586 
 C                     6.01571   0.43424  -1.22296 
 O                     6.86374   0.36169  -2.11041 
 N                     5.13915  -0.60515  -1.02319 
 C                     4.36988  -0.93438   0.18385 
 C                     3.84607  -2.37796   0.10945 
 O                     3.78688  -3.08125   1.10708 
 C                     3.14273  -0.02062   0.4379 
 S                     1.92445   0.05179  -0.95543 
 N                     3.3892   -2.76119  -1.12462 
 C                     2.31227  -3.74674  -1.2498 
 C                     1.0034   -3.05157  -1.63585 
 C                     2.71754  -4.76782  -2.33419 
 O                     2.46439  -4.55813  -3.51499 
 N                     3.39299  -5.8739   -1.91594 
 C                     3.81877  -6.21273  -0.57274 
 C                     4.89356  -7.28156  -0.65836 
 O                     5.2776   -7.7974   -1.68461 
 O                     5.3568   -7.60144   0.5636 
 H                     10.09004  -0.31401   0.23373 
 H                     9.23305  -0.68178   1.74482 
 H                     8.11523  -0.82081  -0.84692 
 H                     8.56615   1.59852  -0.17164 
 H                     9.7519    1.74824   2.47888 
 H                     9.65366   2.94037   1.37922 
 H                     6.62385   2.40954  -0.81776 
 H                     4.92568   2.14869  -0.46148 
 H                     5.43543   1.61331   1.708 
 H                     3.44723   1.01021   0.63424 
 H                     2.62636  -0.38642   1.32958 
 H                     5.00823  -0.88947   1.07172 
 H                     5.44413  -1.41029  -1.56194 
 H                     0.20033  -3.78865  -1.74707 
 H                     1.09582  -2.52287  -2.58551 
 H                     2.21265  -4.21609  -0.26945 
 H                     3.3737   -2.04645  -1.84363 
 H                     2.9998   -6.61863   0.04 
 H                     4.21719  -5.35095  -0.02521 
 H                     3.73594  -6.48533  -2.65105 
 H                     6.03263  -8.29445   0.43703 
 Se                    0.26405  -1.82408  -0.22849 
 C                    -1.26395   3.98183  -1.2576 
 C                    -1.02935   5.04018  -2.15136 
 C                    -2.51618   3.343    -1.25714 
 C                    -2.03435   5.45409  -3.02716 
 H                    -0.06398   5.53659  -2.16972 
 C                    -3.5172    3.76536  -2.13359 
 H                    -2.71233   2.51622  -0.58047 
 C                    -3.27803   4.81842  -3.01938 
 H                    -1.84308   6.27275  -3.71584 
 H                    -4.47689   3.25627  -2.12376 
 H                    -4.05656   5.14122  -3.70558 
 C                    -0.28363   4.3315    1.48472 
 C                     0.08486   3.74035   2.70353 
 C                    -0.85884   5.61213   1.48972 
 C                    -0.10168   4.42481   3.90531 
 H                     0.50238   2.73675   2.71385 
 C                    -1.04809   6.29134   2.69344 
 H                    -1.16702   6.07302   0.5561 
 C                    -0.66844   5.70057   3.90117 
 H                     0.18139   3.95459   4.8427 
 H                    -1.49799   7.28038   2.68811 
 H                    -0.82342   6.22967   4.83742 
 C                     1.60473   3.99327  -0.72394 
 C                     2.05008   3.47787  -1.95696 
 C                     2.43529   4.87965  -0.0187 
 C                     3.28068   3.87106  -2.48546 
 H                     1.42451   2.78592  -2.51286 
 C                     3.6696    5.26241  -0.54724 
 H                     2.11092   5.28361   0.93493 
 C                     4.09258   4.76566  -1.78291 
 H                     3.60411   3.47728  -3.44507 
 H                     4.29474   5.96089   0.00264 
 H                     5.04825   5.07474  -2.19761 
 Cl                   -2.14118   0.67102   1.72171 
 

 GradGradGradGradGradGradGradGradGradGradGradGradGradGradGradGradGradGrad
 Berny optimization.
 Initialization pass.
 No redundant coordinates on chk file, so ReadFC converted to ReadCartesianFC.
 Cartesian force constants read from checkpoint file:
 "au-1to3-ts-2-af51-c-term-level3-freq-se-2.chk"
 FormGI is forming the generalized inverse of G from B-inverse, IUseBI=4.
                           ----------------------------
                           !    Initial Parameters    !
                           ! (Angstroms and Degrees)  !
 --------------------------                            --------------------------
 ! Name  Definition              Value          Derivative Info.                !
 --------------------------------------------------------------------------------
 ! R1    R(1,2)                  2.5632         D2E/DX2 =    0.0354             !
 ! R2    R(1,18)                 2.4829         D2E/DX2 =    0.0623             !
 ! R3    R(1,50)                 2.7373         D2E/DX2 =    0.0404             !
 ! R4    R(1,84)                 2.53           D2E/DX2 =    0.0479             !
 ! R5    R(2,51)                 1.8356         D2E/DX2 =    0.2011             !
 ! R6    R(2,62)                 1.8348         D2E/DX2 =    0.1993             !
 ! R7    R(2,73)                 1.8332         D2E/DX2 =    0.1989             !
 ! R8    R(3,4)                  1.4644         D2E/DX2 =    0.3339             !
 ! R9    R(3,33)                 1.0211         D2E/DX2 =    0.4354             !
 ! R10   R(3,34)                 1.019          D2E/DX2 =    0.4387             !
 ! R11   R(4,5)                  1.5401         D2E/DX2 =    0.2481             !
 ! R12   R(4,7)                  1.545          D2E/DX2 =    0.2606             !
 ! R13   R(4,32)                 1.0951         D2E/DX2 =    0.3384             !
 ! R14   R(5,6)                  1.2263         D2E/DX2 =    0.7986             !
 ! R15   R(5,9)                  1.3763         D2E/DX2 =    0.4313             !
 ! R16   R(7,8)                  1.4189         D2E/DX2 =    0.3582             !
 ! R17   R(7,29)                 1.0979         D2E/DX2 =    0.3315             !
 ! R18   R(7,30)                 1.0948         D2E/DX2 =    0.3414             !
 ! R19   R(8,31)                 0.9728         D2E/DX2 =    0.4907             !
 ! R20   R(9,10)                 1.4545         D2E/DX2 =    0.3485             !
 ! R21   R(9,37)                 1.0131         D2E/DX2 =    0.4578             !
 ! R22   R(10,11)                1.5364         D2E/DX2 =    0.2546             !
 ! R23   R(10,35)                1.0927         D2E/DX2 =    0.3446             !
 ! R24   R(10,36)                1.0933         D2E/DX2 =    0.3445             !
 ! R25   R(11,12)                1.2296         D2E/DX2 =    0.7806             !
 ! R26   R(11,13)                1.3743         D2E/DX2 =    0.4294             !
 ! R27   R(13,14)                1.4687         D2E/DX2 =    0.3187             !
 ! R28   R(13,41)                1.0156         D2E/DX2 =    0.45               !
 ! R29   R(14,15)                1.5375         D2E/DX2 =    0.2456             !
 ! R30   R(14,17)                1.5509         D2E/DX2 =    0.2337             !
 ! R31   R(14,40)                1.0944         D2E/DX2 =    0.34               !
 ! R32   R(15,16)                1.222          D2E/DX2 =    0.8117             !
 ! R33   R(15,19)                1.3706         D2E/DX2 =    0.4092             !
 ! R34   R(17,18)                1.8522         D2E/DX2 =    0.1701             !
 ! R35   R(17,38)                1.0926         D2E/DX2 =    0.3437             !
 ! R36   R(17,39)                1.0934         D2E/DX2 =    0.3451             !
 ! R37   R(19,20)                1.4652         D2E/DX2 =    0.3079             !
 ! R38   R(19,45)                1.0139         D2E/DX2 =    0.454              !
 ! R39   R(20,21)                1.5315         D2E/DX2 =    0.2575             !
 ! R40   R(20,22)                1.5436         D2E/DX2 =    0.2484             !
 ! R41   R(20,44)                1.0915         D2E/DX2 =    0.3483             !
 ! R42   R(21,42)                1.0957         D2E/DX2 =    0.3393             !
 ! R43   R(21,43)                1.0908         D2E/DX2 =    0.3512             !
 ! R44   R(21,50)                2.0085         D2E/DX2 =    0.1255             !
 ! R45   R(22,23)                1.2257         D2E/DX2 =    0.8029             !
 ! R46   R(22,24)                1.3618         D2E/DX2 =    0.4624             !
 ! R47   R(24,25)                1.4492         D2E/DX2 =    0.3554             !
 ! R48   R(24,48)                1.0158         D2E/DX2 =    0.4528             !
 ! R49   R(25,26)                1.5182         D2E/DX2 =    0.2889             !
 ! R50   R(25,46)                1.1004         D2E/DX2 =    0.3257             !
 ! R51   R(25,47)                1.096          D2E/DX2 =    0.3383             !
 ! R52   R(26,27)                1.2111         D2E/DX2 =    0.8696             !
 ! R53   R(26,28)                1.3454         D2E/DX2 =    0.427              !
 ! R54   R(28,49)                0.9762         D2E/DX2 =    0.4883             !
 ! R55   R(51,52)                1.405          D2E/DX2 =    0.3812             !
 ! R56   R(51,53)                1.4058         D2E/DX2 =    0.3811             !
 ! R57   R(52,54)                1.3958         D2E/DX2 =    0.4012             !
 ! R58   R(52,55)                1.0857         D2E/DX2 =    0.3632             !
 ! R59   R(53,56)                1.3959         D2E/DX2 =    0.4012             !
 ! R60   R(53,57)                1.0862         D2E/DX2 =    0.3615             !
 ! R61   R(54,58)                1.3967         D2E/DX2 =    0.401              !
 ! R62   R(54,59)                1.0868         D2E/DX2 =    0.3606             !
 ! R63   R(56,58)                1.3967         D2E/DX2 =    0.4008             !
 ! R64   R(56,60)                1.0864         D2E/DX2 =    0.3621             !
 ! R65   R(58,61)                1.0868         D2E/DX2 =    0.3611             !
 ! R66   R(62,63)                1.4038         D2E/DX2 =    0.3845             !
 ! R67   R(62,64)                1.4039         D2E/DX2 =    0.3822             !
 ! R68   R(63,65)                1.3956         D2E/DX2 =    0.4013             !
 ! R69   R(63,66)                1.087          D2E/DX2 =    0.3604             !
 ! R70   R(64,67)                1.395          D2E/DX2 =    0.4026             !
 ! R71   R(64,68)                1.0858         D2E/DX2 =    0.3626             !
 ! R72   R(65,69)                1.396          D2E/DX2 =    0.4027             !
 ! R73   R(65,70)                1.0862         D2E/DX2 =    0.3623             !
 ! R74   R(67,69)                1.3971         D2E/DX2 =    0.4004             !
 ! R75   R(67,71)                1.0866         D2E/DX2 =    0.3612             !
 ! R76   R(69,72)                1.0865         D2E/DX2 =    0.3617             !
 ! R77   R(73,74)                1.4087         D2E/DX2 =    0.3732             !
 ! R78   R(73,75)                1.4046         D2E/DX2 =    0.3812             !
 ! R79   R(74,76)                1.3958         D2E/DX2 =    0.4009             !
 ! R80   R(74,77)                1.0859         D2E/DX2 =    0.3627             !
 ! R81   R(75,78)                1.3962         D2E/DX2 =    0.4006             !
 ! R82   R(75,79)                1.0853         D2E/DX2 =    0.3648             !
 ! R83   R(76,80)                1.3975         D2E/DX2 =    0.3995             !
 ! R84   R(76,81)                1.0865         D2E/DX2 =    0.3618             !
 ! R85   R(78,80)                1.3973         D2E/DX2 =    0.3993             !
 ! R86   R(78,82)                1.0868         D2E/DX2 =    0.3609             !
 ! R87   R(80,83)                1.0866         D2E/DX2 =    0.3613             !
 ! A1    A(2,1,18)             103.2547         D2E/DX2 =    0.0323             !
 ! A2    A(2,1,50)             160.8409         D2E/DX2 =    0.0166             !
 ! A3    A(2,1,84)              99.9069         D2E/DX2 =    0.0216             !
 ! A4    A(18,1,50)             59.7224         D2E/DX2 =   -0.0056             !
 ! A5    A(18,1,84)            156.4184         D2E/DX2 =    0.0065             !
 ! A6    A(50,1,84)             97.9682         D2E/DX2 =    0.0129             !
 ! A7    A(1,2,51)             111.2411         D2E/DX2 =    0.0245             !
 ! A8    A(1,2,62)             113.8535         D2E/DX2 =    0.0269             !
 ! A9    A(1,2,73)             113.7901         D2E/DX2 =    0.0406             !
 ! A10   A(51,2,62)            106.1002         D2E/DX2 =    0.031              !
 ! A11   A(51,2,73)            105.376          D2E/DX2 =    0.0373             !
 ! A12   A(62,2,73)            105.8014         D2E/DX2 =    0.0327             !
 ! A13   A(4,3,33)             107.1676         D2E/DX2 =    0.1618             !
 ! A14   A(4,3,34)             109.7372         D2E/DX2 =    0.1578             !
 ! A15   A(33,3,34)            105.578          D2E/DX2 =    0.0562             !
 ! A16   A(3,4,5)              111.1771         D2E/DX2 =    0.0704             !
 ! A17   A(3,4,7)              107.8946         D2E/DX2 =    0.0919             !
 ! A18   A(3,4,32)             108.5006         D2E/DX2 =    0.0282             !
 ! A19   A(5,4,7)              109.3416         D2E/DX2 =    0.0796             !
 ! A20   A(5,4,32)             111.7337         D2E/DX2 =    0.0284             !
 ! A21   A(7,4,32)             108.0683         D2E/DX2 =    0.0337             !
 ! A22   A(4,5,6)              119.9425         D2E/DX2 =    0.1954             !
 ! A23   A(4,5,9)              120.2175         D2E/DX2 =    0.2652             !
 ! A24   A(6,5,9)              119.8371         D2E/DX2 =    0.2243             !
 ! A25   A(4,7,8)              113.4619         D2E/DX2 =    0.1859             !
 ! A26   A(4,7,29)             107.6071         D2E/DX2 =    0.0745             !
 ! A27   A(4,7,30)             108.7245         D2E/DX2 =    0.0796             !
 ! A28   A(8,7,29)             112.2989         D2E/DX2 =    0.0695             !
 ! A29   A(8,7,30)             106.4314         D2E/DX2 =    0.0652             !
 ! A30   A(29,7,30)            108.1556         D2E/DX2 =    0.0276             !
 ! A31   A(7,8,31)             107.6597         D2E/DX2 =    0.2118             !
 ! A32   A(5,9,10)             128.9436         D2E/DX2 =    0.2184             !
 ! A33   A(5,9,37)             112.4422         D2E/DX2 =    0.1173             !
 ! A34   A(10,9,37)            118.4233         D2E/DX2 =    0.1207             !
 ! A35   A(9,10,11)            115.1404         D2E/DX2 =    0.2041             !
 ! A36   A(9,10,35)            111.1994         D2E/DX2 =    0.0711             !
 ! A37   A(9,10,36)            108.1523         D2E/DX2 =    0.0745             !
 ! A38   A(11,10,35)           105.2184         D2E/DX2 =    0.0671             !
 ! A39   A(11,10,36)           110.0489         D2E/DX2 =    0.0679             !
 ! A40   A(35,10,36)           106.7713         D2E/DX2 =    0.0242             !
 ! A41   A(10,11,12)           119.613          D2E/DX2 =    0.1844             !
 ! A42   A(10,11,13)           120.3562         D2E/DX2 =    0.2135             !
 ! A43   A(12,11,13)           120.0126         D2E/DX2 =    0.207              !
 ! A44   A(11,13,14)           128.5424         D2E/DX2 =    0.185              !
 ! A45   A(11,13,41)           109.3251         D2E/DX2 =    0.1017             !
 ! A46   A(14,13,41)           114.552          D2E/DX2 =    0.0969             !
 ! A47   A(13,14,15)           110.4356         D2E/DX2 =    0.0598             !
 ! A48   A(13,14,17)           114.6438         D2E/DX2 =    0.0671             !
 ! A49   A(13,14,40)           110.6109         D2E/DX2 =    0.029              !
 ! A50   A(15,14,17)           106.9502         D2E/DX2 =    0.0449             !
 ! A51   A(15,14,40)           106.0515         D2E/DX2 =    0.0211             !
 ! A52   A(17,14,40)           107.7237         D2E/DX2 =    0.0276             !
 ! A53   A(14,15,16)           121.1553         D2E/DX2 =    0.1525             !
 ! A54   A(14,15,19)           114.8134         D2E/DX2 =    0.1214             !
 ! A55   A(16,15,19)           123.9166         D2E/DX2 =    0.1782             !
 ! A56   A(14,17,18)           114.8486         D2E/DX2 =    0.0676             !
 ! A57   A(14,17,38)           111.3932         D2E/DX2 =    0.0623             !
 ! A58   A(14,17,39)           108.0678         D2E/DX2 =    0.0658             !
 ! A59   A(18,17,38)           106.3549         D2E/DX2 =    0.0468             !
 ! A60   A(18,17,39)           108.4163         D2E/DX2 =    0.0412             !
 ! A61   A(38,17,39)           107.4995         D2E/DX2 =    0.0267             !
 ! A62   A(1,18,17)            101.1355         D2E/DX2 =    0.0951             !
 ! A63   A(15,19,20)           120.6647         D2E/DX2 =    0.0946             !
 ! A64   A(15,19,45)           116.5188         D2E/DX2 =    0.0742             !
 ! A65   A(20,19,45)           113.7238         D2E/DX2 =    0.0781             !
 ! A66   A(19,20,21)           110.1446         D2E/DX2 =    0.0446             !
 ! A67   A(19,20,22)           108.1792         D2E/DX2 =    0.0457             !
 ! A68   A(19,20,44)           106.2357         D2E/DX2 =    0.025              !
 ! A69   A(21,20,22)           110.3385         D2E/DX2 =    0.0633             !
 ! A70   A(21,20,44)           110.0964         D2E/DX2 =    0.0275             !
 ! A71   A(22,20,44)           111.746          D2E/DX2 =    0.0243             !
 ! A72   A(20,21,42)           110.2813         D2E/DX2 =    0.0595             !
 ! A73   A(20,21,43)           111.5337         D2E/DX2 =    0.0618             !
 ! A74   A(20,21,50)           114.5441         D2E/DX2 =    0.0614             !
 ! A75   A(42,21,43)           107.4429         D2E/DX2 =    0.0273             !
 ! A76   A(42,21,50)           102.2657         D2E/DX2 =    0.0377             !
 ! A77   A(43,21,50)           110.1816         D2E/DX2 =    0.0383             !
 ! A78   A(20,22,23)           120.6219         D2E/DX2 =    0.1781             !
 ! A79   A(20,22,24)           116.8544         D2E/DX2 =    0.2032             !
 ! A80   A(23,22,24)           122.4976         D2E/DX2 =    0.1952             !
 ! A81   A(22,24,25)           128.3356         D2E/DX2 =    0.1422             !
 ! A82   A(22,24,48)           115.7266         D2E/DX2 =    0.0941             !
 ! A83   A(25,24,48)           115.5187         D2E/DX2 =    0.102              !
 ! A84   A(24,25,26)           108.6821         D2E/DX2 =    0.1927             !
 ! A85   A(24,25,46)           112.5611         D2E/DX2 =    0.0633             !
 ! A86   A(24,25,47)           112.7052         D2E/DX2 =    0.0679             !
 ! A87   A(26,25,46)           107.3734         D2E/DX2 =    0.0621             !
 ! A88   A(26,25,47)           108.9282         D2E/DX2 =    0.0624             !
 ! A89   A(46,25,47)           106.4044         D2E/DX2 =    0.0262             !
 ! A90   A(25,26,27)           124.8994         D2E/DX2 =    0.1701             !
 ! A91   A(25,26,28)           111.0949         D2E/DX2 =    0.161              !
 ! A92   A(27,26,28)           123.9988         D2E/DX2 =    0.1979             !
 ! A93   A(26,28,49)           106.8214         D2E/DX2 =    0.178              !
 ! A94   A(1,50,21)            139.7597         D2E/DX2 =    0.039              !
 ! A95   A(2,51,52)            122.63           D2E/DX2 =    0.1219             !
 ! A96   A(2,51,53)            117.9445         D2E/DX2 =    0.1192             !
 ! A97   A(52,51,53)           119.4242         D2E/DX2 =    0.084              !
 ! A98   A(51,52,54)           120.1509         D2E/DX2 =    0.0825             !
 ! A99   A(51,52,55)           120.2426         D2E/DX2 =    0.0863             !
 ! A100  A(54,52,55)           119.6054         D2E/DX2 =    0.0856             !
 ! A101  A(51,53,56)           120.0715         D2E/DX2 =    0.0823             !
 ! A102  A(51,53,57)           120.4603         D2E/DX2 =    0.0887             !
 ! A103  A(56,53,57)           119.4677         D2E/DX2 =    0.0873             !
 ! A104  A(52,54,58)           120.1755         D2E/DX2 =    0.0821             !
 ! A105  A(52,54,59)           119.6202         D2E/DX2 =    0.083              !
 ! A106  A(58,54,59)           120.2042         D2E/DX2 =    0.0831             !
 ! A107  A(53,56,58)           120.2334         D2E/DX2 =    0.082              !
 ! A108  A(53,56,60)           119.0776         D2E/DX2 =    0.0836             !
 ! A109  A(58,56,60)           120.685          D2E/DX2 =    0.0826             !
 ! A110  A(54,58,56)           119.9435         D2E/DX2 =    0.0822             !
 ! A111  A(54,58,61)           119.9433         D2E/DX2 =    0.0832             !
 ! A112  A(56,58,61)           120.1126         D2E/DX2 =    0.0831             !
 ! A113  A(2,62,63)            118.5296         D2E/DX2 =    0.1126             !
 ! A114  A(2,62,64)            122.2223         D2E/DX2 =    0.1117             !
 ! A115  A(63,62,64)           119.2479         D2E/DX2 =    0.0834             !
 ! A116  A(62,63,65)           120.4            D2E/DX2 =    0.0827             !
 ! A117  A(62,63,66)           119.8576         D2E/DX2 =    0.086              !
 ! A118  A(65,63,66)           119.7342         D2E/DX2 =    0.0852             !
 ! A119  A(62,64,67)           120.1847         D2E/DX2 =    0.0825             !
 ! A120  A(62,64,68)           120.028          D2E/DX2 =    0.0858             !
 ! A121  A(67,64,68)           119.7846         D2E/DX2 =    0.0847             !
 ! A122  A(63,65,69)           119.9955         D2E/DX2 =    0.082              !
 ! A123  A(63,65,70)           119.7355         D2E/DX2 =    0.083              !
 ! A124  A(69,65,70)           120.2622         D2E/DX2 =    0.083              !
 ! A125  A(64,67,69)           120.2106         D2E/DX2 =    0.0822             !
 ! A126  A(64,67,71)           119.6775         D2E/DX2 =    0.0831             !
 ! A127  A(69,67,71)           120.1109         D2E/DX2 =    0.0833             !
 ! A128  A(65,69,67)           119.9565         D2E/DX2 =    0.0823             !
 ! A129  A(65,69,72)           120.0251         D2E/DX2 =    0.0832             !
 ! A130  A(67,69,72)           120.0155         D2E/DX2 =    0.0832             !
 ! A131  A(2,73,74)            118.0876         D2E/DX2 =    0.109              !
 ! A132  A(2,73,75)            122.8992         D2E/DX2 =    0.1155             !
 ! A133  A(74,73,75)           118.9102         D2E/DX2 =    0.0829             !
 ! A134  A(73,74,76)           120.4707         D2E/DX2 =    0.0828             !
 ! A135  A(73,74,77)           119.9414         D2E/DX2 =    0.0863             !
 ! A136  A(76,74,77)           119.575          D2E/DX2 =    0.0854             !
 ! A137  A(73,75,78)           120.377          D2E/DX2 =    0.0822             !
 ! A138  A(73,75,79)           119.9573         D2E/DX2 =    0.086              !
 ! A139  A(78,75,79)           119.658          D2E/DX2 =    0.0851             !
 ! A140  A(74,76,80)           120.1434         D2E/DX2 =    0.082              !
 ! A141  A(74,76,81)           119.654          D2E/DX2 =    0.0832             !
 ! A142  A(80,76,81)           120.2025         D2E/DX2 =    0.0831             !
 ! A143  A(75,78,80)           120.3252         D2E/DX2 =    0.0822             !
 ! A144  A(75,78,82)           119.5507         D2E/DX2 =    0.0832             !
 ! A145  A(80,78,82)           120.1189         D2E/DX2 =    0.0832             !
 ! A146  A(76,80,78)           119.7525         D2E/DX2 =    0.0822             !
 ! A147  A(76,80,83)           120.0764         D2E/DX2 =    0.0829             !
 ! A148  A(78,80,83)           120.1711         D2E/DX2 =    0.0829             !
 ! D1    D(18,1,2,51)          107.6979         D2E/DX2 =    0.0111             !
 ! D2    D(18,1,2,62)         -132.4879         D2E/DX2 =    0.0097             !
 ! D3    D(18,1,2,73)          -11.1347         D2E/DX2 =    0.0135             !
 ! D4    D(50,1,2,51)           81.8987         D2E/DX2 =    0.0083             !
 ! D5    D(50,1,2,62)         -158.2871         D2E/DX2 =    0.008              !
 ! D6    D(50,1,2,73)          -36.9339         D2E/DX2 =    0.0078             !
 ! D7    D(84,1,2,51)          -76.7654         D2E/DX2 =    0.009              !
 ! D8    D(84,1,2,62)           43.0488         D2E/DX2 =    0.0076             !
 ! D9    D(84,1,2,73)          164.402          D2E/DX2 =    0.0105             !
 ! D10   D(2,1,18,17)           93.11           D2E/DX2 =    0.0239             !
 ! D11   D(50,1,18,17)         -96.4103         D2E/DX2 =    0.0316             !
 ! D12   D(84,1,18,17)         -75.8423         D2E/DX2 =    0.0071             !
 ! D13   D(2,1,50,21)           -7.496          D2E/DX2 =    0.0061             !
 ! D14   D(18,1,50,21)         -36.8719         D2E/DX2 =    0.0131             !
 ! D15   D(84,1,50,21)         151.2869         D2E/DX2 =    0.0073             !
 ! D16   D(1,2,51,52)         -143.6253         D2E/DX2 =    0.0081             !
 ! D17   D(1,2,51,53)           36.797          D2E/DX2 =    0.0085             !
 ! D18   D(62,2,51,52)          92.0571         D2E/DX2 =    0.0102             !
 ! D19   D(62,2,51,53)         -87.5207         D2E/DX2 =    0.0101             !
 ! D20   D(73,2,51,52)         -19.8632         D2E/DX2 =    0.0124             !
 ! D21   D(73,2,51,53)         160.5591         D2E/DX2 =    0.0125             !
 ! D22   D(1,2,62,63)           29.5959         D2E/DX2 =    0.0074             !
 ! D23   D(1,2,62,64)         -150.2394         D2E/DX2 =    0.0071             !
 ! D24   D(51,2,62,63)         152.2745         D2E/DX2 =    0.0104             !
 ! D25   D(51,2,62,64)         -27.5607         D2E/DX2 =    0.0101             !
 ! D26   D(73,2,62,63)         -96.1024         D2E/DX2 =    0.0131             !
 ! D27   D(73,2,62,64)          84.0624         D2E/DX2 =    0.0128             !
 ! D28   D(1,2,73,74)           56.9983         D2E/DX2 =    0.0069             !
 ! D29   D(1,2,73,75)         -119.2665         D2E/DX2 =    0.0055             !
 ! D30   D(51,2,73,74)         -65.1332         D2E/DX2 =    0.0112             !
 ! D31   D(51,2,73,75)         118.602          D2E/DX2 =    0.009              !
 ! D32   D(62,2,73,74)        -177.2645         D2E/DX2 =    0.0109             !
 ! D33   D(62,2,73,75)           6.4707         D2E/DX2 =    0.0091             !
 ! D34   D(33,3,4,5)            41.7297         D2E/DX2 =    0.0186             !
 ! D35   D(33,3,4,7)           -78.1602         D2E/DX2 =    0.0189             !
 ! D36   D(33,3,4,32)          164.9859         D2E/DX2 =    0.0144             !
 ! D37   D(34,3,4,5)           -72.441          D2E/DX2 =    0.0167             !
 ! D38   D(34,3,4,7)           167.6691         D2E/DX2 =    0.0178             !
 ! D39   D(34,3,4,32)           50.8152         D2E/DX2 =    0.0128             !
 ! D40   D(3,4,5,6)            -40.7972         D2E/DX2 =    0.0202             !
 ! D41   D(3,4,5,9)            138.5868         D2E/DX2 =    0.0217             !
 ! D42   D(7,4,5,6)             78.2295         D2E/DX2 =    0.0329             !
 ! D43   D(7,4,5,9)           -102.3866         D2E/DX2 =    0.0468             !
 ! D44   D(32,4,5,6)          -162.1812         D2E/DX2 =    0.0149             !
 ! D45   D(32,4,5,9)            17.2027         D2E/DX2 =    0.0169             !
 ! D46   D(3,4,7,8)           -177.8065         D2E/DX2 =    0.0231             !
 ! D47   D(3,4,7,29)           -52.9373         D2E/DX2 =    0.0196             !
 ! D48   D(3,4,7,30)            63.9831         D2E/DX2 =    0.0205             !
 ! D49   D(5,4,7,8)             61.1519         D2E/DX2 =    0.0269             !
 ! D50   D(5,4,7,29)          -173.9789         D2E/DX2 =    0.0228             !
 ! D51   D(5,4,7,30)           -57.0585         D2E/DX2 =    0.0215             !
 ! D52   D(32,4,7,8)           -60.6722         D2E/DX2 =    0.0182             !
 ! D53   D(32,4,7,29)           64.197          D2E/DX2 =    0.0155             !
 ! D54   D(32,4,7,30)         -178.8825         D2E/DX2 =    0.0165             !
 ! D55   D(4,5,9,10)            -2.7996         D2E/DX2 =    0.0173             !
 ! D56   D(4,5,9,37)          -177.6265         D2E/DX2 =    0.0157             !
 ! D57   D(6,5,9,10)           176.585          D2E/DX2 =    0.0253             !
 ! D58   D(6,5,9,37)             1.758          D2E/DX2 =    0.0156             !
 ! D59   D(4,7,8,31)            68.2724         D2E/DX2 =    0.0218             !
 ! D60   D(29,7,8,31)          -54.0308         D2E/DX2 =    0.0254             !
 ! D61   D(30,7,8,31)         -172.1995         D2E/DX2 =    0.028              !
 ! D62   D(5,9,10,11)           74.5426         D2E/DX2 =    0.0237             !
 ! D63   D(5,9,10,35)          -44.9979         D2E/DX2 =    0.0143             !
 ! D64   D(5,9,10,36)         -161.926          D2E/DX2 =    0.018              !
 ! D65   D(37,9,10,11)        -110.8948         D2E/DX2 =    0.0168             !
 ! D66   D(37,9,10,35)         129.5647         D2E/DX2 =    0.0176             !
 ! D67   D(37,9,10,36)          12.6366         D2E/DX2 =    0.0119             !
 ! D68   D(9,10,11,12)        -116.6112         D2E/DX2 =    0.0215             !
 ! D69   D(9,10,11,13)          64.9424         D2E/DX2 =    0.0215             !
 ! D70   D(35,10,11,12)          6.1842         D2E/DX2 =    0.0182             !
 ! D71   D(35,10,11,13)       -172.2622         D2E/DX2 =    0.0184             !
 ! D72   D(36,10,11,12)        120.8678         D2E/DX2 =    0.0172             !
 ! D73   D(36,10,11,13)        -57.5786         D2E/DX2 =    0.0178             !
 ! D74   D(10,11,13,14)        -23.2152         D2E/DX2 =    0.0088             !
 ! D75   D(10,11,13,41)       -170.6039         D2E/DX2 =    0.0119             !
 ! D76   D(12,11,13,14)        158.3446         D2E/DX2 =    0.0132             !
 ! D77   D(12,11,13,41)         10.9559         D2E/DX2 =    0.013              !
 ! D78   D(11,13,14,15)       -163.5307         D2E/DX2 =    0.0143             !
 ! D79   D(11,13,14,17)         75.5898         D2E/DX2 =    0.0153             !
 ! D80   D(11,13,14,40)        -46.441          D2E/DX2 =    0.0102             !
 ! D81   D(41,13,14,15)        -17.526          D2E/DX2 =    0.0119             !
 ! D82   D(41,13,14,17)       -138.4055         D2E/DX2 =    0.0136             !
 ! D83   D(41,13,14,40)         99.5637         D2E/DX2 =    0.0102             !
 ! D84   D(13,14,15,16)        143.5038         D2E/DX2 =    0.0221             !
 ! D85   D(13,14,15,19)        -40.2433         D2E/DX2 =    0.0236             !
 ! D86   D(17,14,15,16)        -91.1334         D2E/DX2 =    0.0155             !
 ! D87   D(17,14,15,19)         85.1195         D2E/DX2 =    0.0193             !
 ! D88   D(40,14,15,16)         23.6289         D2E/DX2 =    0.0142             !
 ! D89   D(40,14,15,19)       -160.1182         D2E/DX2 =    0.0159             !
 ! D90   D(13,14,17,18)         56.2927         D2E/DX2 =    0.0217             !
 ! D91   D(13,14,17,38)        -64.6847         D2E/DX2 =    0.0174             !
 ! D92   D(13,14,17,39)        177.443          D2E/DX2 =    0.0195             !
 ! D93   D(15,14,17,18)        -66.487          D2E/DX2 =    0.0189             !
 ! D94   D(15,14,17,38)        172.5356         D2E/DX2 =    0.018              !
 ! D95   D(15,14,17,39)         54.6633         D2E/DX2 =    0.0167             !
 ! D96   D(40,14,17,18)        179.8805         D2E/DX2 =    0.015              !
 ! D97   D(40,14,17,38)         58.9031         D2E/DX2 =    0.0133             !
 ! D98   D(40,14,17,39)        -58.9693         D2E/DX2 =    0.0135             !
 ! D99   D(14,15,19,20)       -149.4075         D2E/DX2 =    0.0207             !
 ! D100  D(14,15,19,45)         -4.4631         D2E/DX2 =    0.0142             !
 ! D101  D(16,15,19,20)         26.7282         D2E/DX2 =    0.0141             !
 ! D102  D(16,15,19,45)        171.6726         D2E/DX2 =    0.0157             !
 ! D103  D(14,17,18,1)         159.4885         D2E/DX2 =    0.0246             !
 ! D104  D(38,17,18,1)         -76.8122         D2E/DX2 =    0.0237             !
 ! D105  D(39,17,18,1)          38.5291         D2E/DX2 =    0.0262             !
 ! D106  D(15,19,20,21)        105.0202         D2E/DX2 =    0.0169             !
 ! D107  D(15,19,20,22)       -134.3078         D2E/DX2 =    0.0213             !
 ! D108  D(15,19,20,44)        -14.1899         D2E/DX2 =    0.0117             !
 ! D109  D(45,19,20,21)        -40.8285         D2E/DX2 =    0.0153             !
 ! D110  D(45,19,20,22)         79.8435         D2E/DX2 =    0.0176             !
 ! D111  D(45,19,20,44)       -160.0386         D2E/DX2 =    0.0114             !
 ! D112  D(19,20,21,42)        179.0213         D2E/DX2 =    0.0153             !
 ! D113  D(19,20,21,43)         59.7224         D2E/DX2 =    0.0152             !
 ! D114  D(19,20,21,50)        -66.2869         D2E/DX2 =    0.0144             !
 ! D115  D(22,20,21,42)         59.6551         D2E/DX2 =    0.0138             !
 ! D116  D(22,20,21,43)        -59.6438         D2E/DX2 =    0.0134             !
 ! D117  D(22,20,21,50)        174.3469         D2E/DX2 =    0.0162             !
 ! D118  D(44,20,21,42)        -64.1497         D2E/DX2 =    0.0129             !
 ! D119  D(44,20,21,43)        176.5515         D2E/DX2 =    0.0125             !
 ! D120  D(44,20,21,50)         50.5422         D2E/DX2 =    0.0142             !
 ! D121  D(19,20,22,23)        -87.2044         D2E/DX2 =    0.0154             !
 ! D122  D(19,20,22,24)         90.9861         D2E/DX2 =    0.0159             !
 ! D123  D(21,20,22,23)         33.3467         D2E/DX2 =    0.0129             !
 ! D124  D(21,20,22,24)       -148.4627         D2E/DX2 =    0.0126             !
 ! D125  D(44,20,22,23)        156.1923         D2E/DX2 =    0.0122             !
 ! D126  D(44,20,22,24)        -25.6171         D2E/DX2 =    0.0127             !
 ! D127  D(20,21,50,1)         109.97           D2E/DX2 =    0.0253             !
 ! D128  D(42,21,50,1)        -130.7391         D2E/DX2 =    0.0245             !
 ! D129  D(43,21,50,1)         -16.7391         D2E/DX2 =    0.0222             !
 ! D130  D(20,22,24,25)         -1.6834         D2E/DX2 =    0.0072             !
 ! D131  D(20,22,24,48)       -173.8525         D2E/DX2 =    0.0093             !
 ! D132  D(23,22,24,25)        176.4704         D2E/DX2 =    0.0111             !
 ! D133  D(23,22,24,48)          4.3013         D2E/DX2 =    0.0108             !
 ! D134  D(22,24,25,26)       -162.0586         D2E/DX2 =    0.0102             !
 ! D135  D(22,24,25,46)         79.1378         D2E/DX2 =    0.0146             !
 ! D136  D(22,24,25,47)        -41.2166         D2E/DX2 =    0.014              !
 ! D137  D(48,24,25,26)         10.1242         D2E/DX2 =    0.0109             !
 ! D138  D(48,24,25,46)       -108.6794         D2E/DX2 =    0.0151             !
 ! D139  D(48,24,25,47)        130.9662         D2E/DX2 =    0.0148             !
 ! D140  D(24,25,26,27)         -2.9822         D2E/DX2 =    0.0201             !
 ! D141  D(24,25,26,28)        177.9422         D2E/DX2 =    0.0207             !
 ! D142  D(46,25,26,27)        119.0341         D2E/DX2 =    0.0189             !
 ! D143  D(46,25,26,28)        -60.0415         D2E/DX2 =    0.0193             !
 ! D144  D(47,25,26,27)       -126.1236         D2E/DX2 =    0.0192             !
 ! D145  D(47,25,26,28)         54.8008         D2E/DX2 =    0.0198             !
 ! D146  D(25,26,28,49)        179.4428         D2E/DX2 =    0.0171             !
 ! D147  D(27,26,28,49)          0.3573         D2E/DX2 =    0.0164             !
 ! D148  D(2,51,52,54)        -179.3757         D2E/DX2 =    0.0064             !
 ! D149  D(2,51,52,55)           1.0241         D2E/DX2 =    0.0066             !
 ! D150  D(53,51,52,54)          0.196          D2E/DX2 =    0.0074             !
 ! D151  D(53,51,52,55)       -179.4042         D2E/DX2 =    0.0075             !
 ! D152  D(2,51,53,56)         179.219          D2E/DX2 =    0.0063             !
 ! D153  D(2,51,53,57)          -1.0479         D2E/DX2 =    0.0072             !
 ! D154  D(52,51,53,56)         -0.3727         D2E/DX2 =    0.0074             !
 ! D155  D(52,51,53,57)        179.3604         D2E/DX2 =    0.0077             !
 ! D156  D(51,52,54,58)          0.0033         D2E/DX2 =    0.0089             !
 ! D157  D(51,52,54,59)       -179.9156         D2E/DX2 =    0.0085             !
 ! D158  D(55,52,54,58)        179.606          D2E/DX2 =    0.0084             !
 ! D159  D(55,52,54,59)         -0.3129         D2E/DX2 =    0.0089             !
 ! D160  D(51,53,56,58)          0.3512         D2E/DX2 =    0.0088             !
 ! D161  D(51,53,56,60)        179.633          D2E/DX2 =    0.0085             !
 ! D162  D(57,53,56,58)       -179.3845         D2E/DX2 =    0.0086             !
 ! D163  D(57,53,56,60)         -0.1028         D2E/DX2 =    0.0093             !
 ! D164  D(52,54,58,56)         -0.0277         D2E/DX2 =    0.009              !
 ! D165  D(52,54,58,61)       -179.7628         D2E/DX2 =    0.0086             !
 ! D166  D(59,54,58,56)        179.8907         D2E/DX2 =    0.0084             !
 ! D167  D(59,54,58,61)          0.1557         D2E/DX2 =    0.009              !
 ! D168  D(53,56,58,54)         -0.1499         D2E/DX2 =    0.009              !
 ! D169  D(53,56,58,61)        179.5846         D2E/DX2 =    0.0086             !
 ! D170  D(60,56,58,54)       -179.42           D2E/DX2 =    0.0086             !
 ! D171  D(60,56,58,61)          0.3146         D2E/DX2 =    0.0091             !
 ! D172  D(2,62,63,65)         179.3035         D2E/DX2 =    0.0062             !
 ! D173  D(2,62,63,66)          -1.745          D2E/DX2 =    0.0065             !
 ! D174  D(64,62,63,65)         -0.8562         D2E/DX2 =    0.0073             !
 ! D175  D(64,62,63,66)        178.0952         D2E/DX2 =    0.007              !
 ! D176  D(2,62,64,67)        -179.5374         D2E/DX2 =    0.0062             !
 ! D177  D(2,62,64,68)           1.0697         D2E/DX2 =    0.0066             !
 ! D178  D(63,62,64,67)          0.6285         D2E/DX2 =    0.0073             !
 ! D179  D(63,62,64,68)       -178.7644         D2E/DX2 =    0.0073             !
 ! D180  D(62,63,65,69)          0.5566         D2E/DX2 =    0.0088             !
 ! D181  D(62,63,65,70)        179.6063         D2E/DX2 =    0.0084             !
 ! D182  D(66,63,65,69)       -178.3962         D2E/DX2 =    0.0082             !
 ! D183  D(66,63,65,70)          0.6536         D2E/DX2 =    0.0089             !
 ! D184  D(62,64,67,69)         -0.103          D2E/DX2 =    0.0088             !
 ! D185  D(62,64,67,71)       -179.7365         D2E/DX2 =    0.0085             !
 ! D186  D(68,64,67,69)        179.2914         D2E/DX2 =    0.0084             !
 ! D187  D(68,64,67,71)         -0.3421         D2E/DX2 =    0.0089             !
 ! D188  D(63,65,69,67)         -0.022          D2E/DX2 =    0.009              !
 ! D189  D(63,65,69,72)        179.3628         D2E/DX2 =    0.0086             !
 ! D190  D(70,65,69,67)       -179.0666         D2E/DX2 =    0.0084             !
 ! D191  D(70,65,69,72)          0.3181         D2E/DX2 =    0.009              !
 ! D192  D(64,67,69,65)         -0.2043         D2E/DX2 =    0.009              !
 ! D193  D(64,67,69,72)       -179.5891         D2E/DX2 =    0.0085             !
 ! D194  D(71,67,69,65)        179.4276         D2E/DX2 =    0.0084             !
 ! D195  D(71,67,69,72)          0.0428         D2E/DX2 =    0.009              !
 ! D196  D(2,73,74,76)        -178.1595         D2E/DX2 =    0.0086             !
 ! D197  D(2,73,74,77)           3.1526         D2E/DX2 =    0.0073             !
 ! D198  D(75,73,74,76)         -1.7419         D2E/DX2 =    0.0074             !
 ! D199  D(75,73,74,77)        179.5702         D2E/DX2 =    0.0072             !
 ! D200  D(2,73,75,78)         177.5184         D2E/DX2 =    0.0086             !
 ! D201  D(2,73,75,79)          -3.501          D2E/DX2 =    0.0079             !
 ! D202  D(74,73,75,78)          1.2829         D2E/DX2 =    0.0074             !
 ! D203  D(74,73,75,79)       -179.7365         D2E/DX2 =    0.0075             !
 ! D204  D(73,74,76,80)          1.0212         D2E/DX2 =    0.0089             !
 ! D205  D(73,74,76,81)       -179.0348         D2E/DX2 =    0.0087             !
 ! D206  D(77,74,76,80)        179.7139         D2E/DX2 =    0.0085             !
 ! D207  D(77,74,76,81)         -0.3421         D2E/DX2 =    0.009              !
 ! D208  D(73,75,78,80)         -0.1044         D2E/DX2 =    0.009              !
 ! D209  D(73,75,78,82)        179.0608         D2E/DX2 =    0.0086             !
 ! D210  D(79,75,78,80)       -179.088          D2E/DX2 =    0.0088             !
 ! D211  D(79,75,78,82)          0.0772         D2E/DX2 =    0.0091             !
 ! D212  D(74,76,80,78)          0.1805         D2E/DX2 =    0.0092             !
 ! D213  D(74,76,80,83)       -179.705          D2E/DX2 =    0.0086             !
 ! D214  D(81,76,80,78)       -179.7632         D2E/DX2 =    0.0085             !
 ! D215  D(81,76,80,83)          0.3513         D2E/DX2 =    0.009              !
 ! D216  D(75,78,80,76)         -0.6389         D2E/DX2 =    0.0091             !
 ! D217  D(75,78,80,83)        179.2464         D2E/DX2 =    0.0086             !
 ! D218  D(82,78,80,76)       -179.7994         D2E/DX2 =    0.0085             !
 ! D219  D(82,78,80,83)          0.086          D2E/DX2 =    0.009              !
 --------------------------------------------------------------------------------
 Trust Radius=3.00D-01 FncErr=1.00D-07 GrdErr=1.00D-06
 Number of steps in this run=    464 maximum allowed number of steps=    504.
 Search for a saddle point of order  1.
 GradGradGradGradGradGradGradGradGradGradGradGradGradGradGradGradGradGrad

 Stoichiometry    C31H36AuClN5O7PSSe
 Framework group  C1[X(C31H36AuClN5O7PSSe)]
 Deg. of freedom   246
 Full point group                 C1      NOp   1
 Largest Abelian subgroup         C1      NOp   1
 Largest concise Abelian subgroup C1      NOp   1
                         Standard orientation:                         
 ---------------------------------------------------------------------
 Center     Atomic      Atomic             Coordinates (Angstroms)
 Number     Number       Type             X           Y           Z
 ---------------------------------------------------------------------
      1         79           0        1.695778   -1.421452   -0.535556
      2         15           0        3.565997    0.177360    0.182745
      3          7           0       -3.690579    7.062198   -0.523008
      4          6           0       -3.589168    5.652510   -0.139484
      5          6           0       -2.632064    4.889182   -1.073886
      6          8           0       -2.649251    5.109314   -2.280186
      7          6           0       -5.000755    5.031831   -0.234953
      8          8           0       -5.047177    3.670210    0.161538
      9          7           0       -1.747819    3.969113   -0.558225
     10          6           0       -1.512471    3.605934    0.830450
     11          6           0       -2.603352    2.734083    1.470985
     12          8           0       -3.251724    3.171653    2.419733
     13          7           0       -2.834237    1.460271    1.009797
     14          6           0       -2.525881    0.894992   -0.310231
     15          6           0       -3.308621   -0.409666   -0.531663
     16          8           0       -3.752101   -0.701854   -1.632264
     17          6           0       -1.027312    0.567689   -0.539553
     18         16           0       -0.281471   -0.580052    0.708335
     19          7           0       -3.387762   -1.226350    0.566190
     20          6           0       -3.469488   -2.681007    0.411095
     21          6           0       -2.125901   -3.325417    0.764534
     22          6           0       -4.578468   -3.203776    1.348980
     23          8           0       -4.327481   -3.489088    2.514283
     24          7           0       -5.833843   -3.291070    0.828414
     25          6           0       -6.284135   -2.922990   -0.499006
     26          6           0       -7.795061   -2.776283   -0.476716
     27          8           0       -8.498146   -2.992839    0.485337
     28          8           0       -8.261890   -2.390569   -1.678126
     29          1           0       -5.680668    5.660796    0.354560
     30          1           0       -5.327869    5.061593   -1.279319
     31          1           0       -4.880968    3.635937    1.119373
     32          1           0       -3.264573    5.599050    0.905009
     33          1           0       -3.742861    7.094239   -1.542299
     34          1           0       -2.829233    7.548397   -0.277746
     35          1           0       -1.444953    4.493030    1.464893
     36          1           0       -0.544984    3.100377    0.891031
     37          1           0       -1.150038    3.566149   -1.270010
     38          1           0       -0.415534    1.472944   -0.529277
     39          1           0       -0.926868    0.114203   -1.529398
     40          1           0       -2.843385    1.577014   -1.105125
     41          1           0       -3.680320    1.096118    1.437645
     42          1           0       -2.189581   -4.414836    0.666050
     43          1           0       -1.835025   -3.106504    1.792830
     44          1           0       -3.708250   -2.863083   -0.638264
     45          1           0       -2.871181   -0.932057    1.387530
     46          1           0       -6.039087   -3.684810   -1.254318
     47          1           0       -5.840964   -1.984414   -0.850947
     48          1           0       -6.566817   -3.543497    1.484837
     49          1           0       -9.232459   -2.324844   -1.596262
     50         34           0       -0.626225   -2.870360   -0.491623
     51          6           0        4.751613   -0.651133    1.312916
     52          6           0        5.363174    0.013583    2.389070
     53          6           0        5.055749   -2.002501    1.073158
     54          6           0        6.267591   -0.663608    3.208717
     55          1           0        5.130640    1.054420    2.592204
     56          6           0        5.964097   -2.671554    1.895270
     57          1           0        4.584875   -2.535651    0.252211
     58          6           0        6.569164   -2.005122    2.963213
     59          1           0        6.734578   -0.141439    4.039575
     60          1           0        6.182743   -3.717467    1.699002
     61          1           0        7.270975   -2.529822    3.606125
     62          6           0        4.563323    0.827463   -1.213330
     63          6           0        3.947714    0.972856   -2.466570
     64          6           0        5.914901    1.178277   -1.068204
     65          6           0        4.665671    1.477278   -3.551772
     66          1           0        2.910509    0.675167   -2.597815
     67          6           0        6.630659    1.677753   -2.156466
     68          1           0        6.409142    1.052061   -0.109648
     69          6           0        6.007578    1.829840   -3.397593
     70          1           0        4.180440    1.579247   -4.518254
     71          1           0        7.677545    1.942639   -2.035980
     72          1           0        6.569860    2.212878   -4.244736
     73          6           0        2.969512    1.649355    1.098114
     74          6           0        2.215324    1.441244    2.269517
     75          6           0        3.166519    2.963063    0.641788
     76          6           0        1.703969    2.525744    2.984130
     77          1           0        2.046715    0.432141    2.633436
     78          6           0        2.644783    4.043962    1.355102
     79          1           0        3.741177    3.142664   -0.261165
     80          6           0        1.918997    3.829750    2.529801
     81          1           0        1.137391    2.350584    3.894519
     82          1           0        2.818324    5.055639    0.998118
     83          1           0        1.524503    4.673460    3.089559
     84         17           0        2.940635   -2.805804   -2.248682
 ---------------------------------------------------------------------
 Rotational constants (GHZ):      0.0570371      0.0317569      0.0243997
 General basis read from cards:  (5D, 7F)
 ======================================================================================================
                                       Pseudopotential Parameters
 ======================================================================================================
  Center     Atomic      Valence      Angular      Power
  Number     Number     Electrons     Momentum     of R      Exponent        Coefficient   SO-Coeffient
 ======================================================================================================
    1         79           19
                                      G and up 
                                                     1      622.6287956      -60.00000000    0.00000000
                                                     2      136.2843607     -555.52923120    0.00000000
                                                     2       33.1549781     -168.00197850    0.00000000
                                                     2        9.9894895      -63.03998750    0.00000000
                                                     2        3.0481312       -4.25166810    0.00000000
                                      S - G
                                                     0      194.7374304        3.00000000    0.00000000
                                                     1      351.5327447       38.60208800    0.00000000
                                                     2      122.3270402      864.83707270    0.00000000
                                                     2       32.0914617      374.99355200    0.00000000
                                                     2        5.2451812      289.79101000    0.00000000
                                                     2        4.4916223     -152.45327730    0.00000000
                                      P - G
                                                     0      420.6158801        2.00000000    0.00000000
                                                     1      109.4417815       73.88856250    0.00000000
                                                     2       34.1714280      326.67298720    0.00000000
                                                     2        5.9879750      126.58145910    0.00000000
                                      D - G
                                                     0      219.2666158        3.00000000    0.00000000
                                                     1      122.7297786       55.67931490    0.00000000
                                                     2       63.1063369      449.19873350    0.00000000
                                                     2       18.3684520      215.02690910    0.00000000
                                                     2        4.4972844       64.08409950    0.00000000
                                      F - G
                                                     0      108.5506037        4.00000000    0.00000000
                                                     1       56.4795527       51.80653350    0.00000000
                                                     2       29.2069159      231.21831130    0.00000000
                                                     2        9.5440543      119.00473860    0.00000000
                                                     2        2.8965118       15.34241880    0.00000000
    2         15
                                   No pseudopotential on this center.
    3          7
                                   No pseudopotential on this center.
    4          6
                                   No pseudopotential on this center.
    5          6
                                   No pseudopotential on this center.
    6          8
                                   No pseudopotential on this center.
    7          6
                                   No pseudopotential on this center.
    8          8
                                   No pseudopotential on this center.
    9          7
                                   No pseudopotential on this center.
   10          6
                                   No pseudopotential on this center.
   11          6
                                   No pseudopotential on this center.
   12          8
                                   No pseudopotential on this center.
   13          7
                                   No pseudopotential on this center.
   14          6
                                   No pseudopotential on this center.
   15          6
                                   No pseudopotential on this center.
   16          8
                                   No pseudopotential on this center.
   17          6
                                   No pseudopotential on this center.
   18         16
                                   No pseudopotential on this center.
   19          7
                                   No pseudopotential on this center.
   20          6
                                   No pseudopotential on this center.
   21          6
                                   No pseudopotential on this center.
   22          6
                                   No pseudopotential on this center.
   23          8
                                   No pseudopotential on this center.
   24          7
                                   No pseudopotential on this center.
   25          6
                                   No pseudopotential on this center.
   26          6
                                   No pseudopotential on this center.
   27          8
                                   No pseudopotential on this center.
   28          8
                                   No pseudopotential on this center.
   29          1
                                   No pseudopotential on this center.
   30          1
                                   No pseudopotential on this center.
   31          1
                                   No pseudopotential on this center.
   32          1
                                   No pseudopotential on this center.
   33          1
                                   No pseudopotential on this center.
   34          1
                                   No pseudopotential on this center.
   35          1
                                   No pseudopotential on this center.
   36          1
                                   No pseudopotential on this center.
   37          1
                                   No pseudopotential on this center.
   38          1
                                   No pseudopotential on this center.
   39          1
                                   No pseudopotential on this center.
   40          1
                                   No pseudopotential on this center.
   41          1
                                   No pseudopotential on this center.
   42          1
                                   No pseudopotential on this center.
   43          1
                                   No pseudopotential on this center.
   44          1
                                   No pseudopotential on this center.
   45          1
                                   No pseudopotential on this center.
   46          1
                                   No pseudopotential on this center.
   47          1
                                   No pseudopotential on this center.
   48          1
                                   No pseudopotential on this center.
   49          1
                                   No pseudopotential on this center.
   50         34
                                   No pseudopotential on this center.
   51          6
                                   No pseudopotential on this center.
   52          6
                                   No pseudopotential on this center.
   53          6
                                   No pseudopotential on this center.
   54          6
                                   No pseudopotential on this center.
   55          1
                                   No pseudopotential on this center.
   56          6
                                   No pseudopotential on this center.
   57          1
                                   No pseudopotential on this center.
   58          6
                                   No pseudopotential on this center.
   59          1
                                   No pseudopotential on this center.
   60          1
                                   No pseudopotential on this center.
   61          1
                                   No pseudopotential on this center.
   62          6
                                   No pseudopotential on this center.
   63          6
                                   No pseudopotential on this center.
   64          6
                                   No pseudopotential on this center.
   65          6
                                   No pseudopotential on this center.
   66          1
                                   No pseudopotential on this center.
   67          6
                                   No pseudopotential on this center.
   68          1
                                   No pseudopotential on this center.
   69          6
                                   No pseudopotential on this center.
   70          1
                                   No pseudopotential on this center.
   71          1
                                   No pseudopotential on this center.
   72          1
                                   No pseudopotential on this center.
   73          6
                                   No pseudopotential on this center.
   74          6
                                   No pseudopotential on this center.
   75          6
                                   No pseudopotential on this center.
   76          6
                                   No pseudopotential on this center.
   77          1
                                   No pseudopotential on this center.
   78          6
                                   No pseudopotential on this center.
   79          1
                                   No pseudopotential on this center.
   80          6
                                   No pseudopotential on this center.
   81          1
                                   No pseudopotential on this center.
   82          1
                                   No pseudopotential on this center.
   83          1
                                   No pseudopotential on this center.
   84         17
                                   No pseudopotential on this center.
 ======================================================================================================
 There are   852 symmetry adapted cartesian basis functions of A   symmetry.
 There are   798 symmetry adapted basis functions of A   symmetry.
   798 basis functions,  1635 primitive gaussians,   852 cartesian basis functions
   207 alpha electrons      207 beta electrons
       nuclear repulsion energy      8344.9287049314 Hartrees.
 NAtoms=   84 NActive=   84 NUniq=   84 SFac= 1.00D+00 NAtFMM=   60 NAOKFM=T Big=T
 Integral buffers will be    131072 words long.
 Raffenetti 2 integral format.
 Two-electron integral symmetry is turned on.
 One-electron integrals computed using PRISM.
   1 Symmetry operations used in ECPInt.
 ECPInt:  NShTT=   40755 NPrTT=  255579 LenC2=   27028 LenP2D=   83498.
 LDataN:  DoStor=T MaxTD1= 7 Len=  274
 NBasis=   798 RedAO= T EigKep=  4.86D-04  NBF=   798
 NBsUse=   798 1.00D-06 EigRej= -1.00D+00 NBFU=   798
 Defaulting to unpruned grid for atomic number  79.
 ExpMin= 2.79D-02 ExpMax= 5.61D+05 ExpMxC= 5.42D+03 IAcc=3 IRadAn=         5 AccDes= 0.00D+00
 Harris functional with IExCor=  402 and IRadAn=       5 diagonalized for initial guess.
 HarFok:  IExCor=  402 AccDes= 0.00D+00 IRadAn=         5 IDoV= 1 UseB2=F ITyADJ=14
 ICtDFT=  3500011 ScaDFX=  1.000000  1.000000  1.000000  1.000000
 Defaulting to unpruned grid for atomic number  79.
 Defaulting to unpruned grid for atomic number  79.
 Defaulting to unpruned grid for atomic number  79.
 Defaulting to unpruned grid for atomic number  79.
 Defaulting to unpruned grid for atomic number  79.
 Defaulting to unpruned grid for atomic number  79.
 Defaulting to unpruned grid for atomic number  79.
 Defaulting to unpruned grid for atomic number  79.
 FoFCou: FMM=F IPFlag=           0 FMFlag=      100000 FMFlg1=        2001
         NFxFlg=           0 DoJE=T BraDBF=F KetDBF=T FulRan=T
         wScrn=  0.000000 ICntrl=     500 IOpCl=  0 I1Cent=   200000004 NGrid=           0
         NMat0=    1 NMatS0=      1 NMatT0=    0 NMatD0=    1 NMtDS0=    0 NMtDT0=    0
 Petite list used in FoFCou.
 Requested convergence on RMS density matrix=1.00D-08 within 128 cycles.
 Requested convergence on MAX density matrix=1.00D-06.
 Requested convergence on             energy=1.00D-06.
 No special actions if energy rises.
 Defaulting to unpruned grid for atomic number  79.
 Defaulting to unpruned grid for atomic number  79.
 Defaulting to unpruned grid for atomic number  79.
 Defaulting to unpruned grid for atomic number  79.
 Defaulting to unpruned grid for atomic number  79.
 Defaulting to unpruned grid for atomic number  79.
 Defaulting to unpruned grid for atomic number  79.
 Defaulting to unpruned grid for atomic number  79.
 EnCoef did    10 forward-backward iterations
 EnCoef did   100 forward-backward iterations
 SCF Done:  E(RB3LYP) =  -5737.46492036     A.U. after   20 cycles
            NFock= 20  Conv=0.68D-08     -V/T= 2.0176

 **********************************************************************

            Population analysis using the SCF density.

 **********************************************************************

 Orbital symmetries:
       Occupied  (A) (A) (A) (A) (A) (A) (A) (A) (A) (A) (A) (A)
                 (A) (A) (A) (A) (A) (A) (A) (A) (A) (A) (A) (A)
                 (A) (A) (A) (A) (A) (A) (A) (A) (A) (A) (A) (A)
                 (A) (A) (A) (A) (A) (A) (A) (A) (A) (A) (A) (A)
                 (A) (A) (A) (A) (A) (A) (A) (A) (A) (A) (A) (A)
                 (A) (A) (A) (A) (A) (A) (A) (A) (A) (A) (A) (A)
                 (A) (A) (A) (A) (A) (A) (A) (A) (A) (A) (A) (A)
                 (A) (A) (A) (A) (A) (A) (A) (A) (A) (A) (A) (A)
                 (A) (A) (A) (A) (A) (A) (A) (A) (A) (A) (A) (A)
                 (A) (A) (A) (A) (A) (A) (A) (A) (A) (A) (A) (A)
                 (A) (A) (A) (A) (A) (A) (A) (A) (A) (A) (A) (A)
                 (A) (A) (A) (A) (A) (A) (A) (A) (A) (A) (A) (A)
                 (A) (A) (A) (A) (A) (A) (A) (A) (A) (A) (A) (A)
                 (A) (A) (A) (A) (A) (A) (A) (A) (A) (A) (A) (A)
                 (A) (A) (A) (A) (A) (A) (A) (A) (A) (A) (A) (A)
                 (A) (A) (A) (A) (A) (A) (A) (A) (A) (A) (A) (A)
                 (A) (A) (A) (A) (A) (A) (A) (A) (A) (A) (A) (A)
                 (A) (A) (A)
       Virtual   (A) (A) (A) (A) (A) (A) (A) (A) (A) (A) (A) (A)
                 (A) (A) (A) (A) (A) (A) (A) (A) (A) (A) (A) (A)
                 (A) (A) (A) (A) (A) (A) (A) (A) (A) (A) (A) (A)
                 (A) (A) (A) (A) (A) (A) (A) (A) (A) (A) (A) (A)
                 (A) (A) (A) (A) (A) (A) (A) (A) (A) (A) (A) (A)
                 (A) (A) (A) (A) (A) (A) (A) (A) (A) (A) (A) (A)
                 (A) (A) (A) (A) (A) (A) (A) (A) (A) (A) (A) (A)
                 (A) (A) (A) (A) (A) (A) (A) (A) (A) (A) (A) (A)
                 (A) (A) (A) (A) (A) (A) (A) (A) (A) (A) (A) (A)
                 (A) (A) (A) (A) (A) (A) (A) (A) (A) (A) (A) (A)
                 (A) (A) (A) (A) (A) (A) (A) (A) (A) (A) (A) (A)
                 (A) (A) (A) (A) (A) (A) (A) (A) (A) (A) (A) (A)
                 (A) (A) (A) (A) (A) (A) (A) (A) (A) (A) (A) (A)
                 (A) (A) (A) (A) (A) (A) (A) (A) (A) (A) (A) (A)
                 (A) (A) (A) (A) (A) (A) (A) (A) (A) (A) (A) (A)
                 (A) (A) (A) (A) (A) (A) (A) (A) (A) (A) (A) (A)
                 (A) (A) (A) (A) (A) (A) (A) (A) (A) (A) (A) (A)
                 (A) (A) (A) (A) (A) (A) (A) (A) (A) (A) (A) (A)
                 (A) (A) (A) (A) (A) (A) (A) (A) (A) (A) (A) (A)
                 (A) (A) (A) (A) (A) (A) (A) (A) (A) (A) (A) (A)
                 (A) (A) (A) (A) (A) (A) (A) (A) (A) (A) (A) (A)
                 (A) (A) (A) (A) (A) (A) (A) (A) (A) (A) (A) (A)
                 (A) (A) (A) (A) (A) (A) (A) (A) (A) (A) (A) (A)
                 (A) (A) (A) (A) (A) (A) (A) (A) (A) (A) (A) (A)
                 (A) (A) (A) (A) (A) (A) (A) (A) (A) (A) (A) (A)
                 (A) (A) (A) (A) (A) (A) (A) (A) (A) (A) (A) (A)
                 (A) (A) (A) (A) (A) (A) (A) (A) (A) (A) (A) (A)
                 (A) (A) (A) (A) (A) (A) (A) (A) (A) (A) (A) (A)
                 (A) (A) (A) (A) (A) (A) (A) (A) (A) (A) (A) (A)
                 (A) (A) (A) (A) (A) (A) (A) (A) (A) (A) (A) (A)
                 (A) (A) (A) (A) (A) (A) (A) (A) (A) (A) (A) (A)
                 (A) (A) (A) (A) (A) (A) (A) (A) (A) (A) (A) (A)
                 (A) (A) (A) (A) (A) (A) (A) (A) (A) (A) (A) (A)
                 (A) (A) (A) (A) (A) (A) (A) (A) (A) (A) (A) (A)
                 (A) (A) (A) (A) (A) (A) (A) (A) (A) (A) (A) (A)
                 (A) (A) (A) (A) (A) (A) (A) (A) (A) (A) (A) (A)
                 (A) (A) (A) (A) (A) (A) (A) (A) (A) (A) (A) (A)
                 (A) (A) (A) (A) (A) (A) (A) (A) (A) (A) (A) (A)
                 (A) (A) (A) (A) (A) (A) (A) (A) (A) (A) (A) (A)
                 (A) (A) (A) (A) (A) (A) (A) (A) (A) (A) (A) (A)
                 (A) (A) (A) (A) (A) (A) (A) (A) (A) (A) (A) (A)
                 (A) (A) (A) (A) (A) (A) (A) (A) (A) (A) (A) (A)
                 (A) (A) (A) (A) (A) (A) (A) (A) (A) (A) (A) (A)
                 (A) (A) (A) (A) (A) (A) (A) (A) (A) (A) (A) (A)
                 (A) (A) (A) (A) (A) (A) (A) (A) (A) (A) (A) (A)
                 (A) (A) (A) (A) (A) (A) (A) (A) (A) (A) (A) (A)
                 (A) (A) (A) (A) (A) (A) (A) (A) (A) (A) (A) (A)
                 (A) (A) (A) (A) (A) (A) (A) (A) (A) (A) (A) (A)
                 (A) (A) (A) (A) (A) (A) (A) (A) (A) (A) (A) (A)
                 (A) (A) (A)
 The electronic state is 1-A.
 Alpha  occ. eigenvalues -- -453.59063-101.44745 -88.91037 -77.12193 -57.30919
 Alpha  occ. eigenvalues --  -52.08518 -52.08403 -52.08068 -19.21413 -19.16287
 Alpha  occ. eigenvalues --  -19.14300 -19.14121 -19.13950 -19.12109 -19.12068
 Alpha  occ. eigenvalues --  -14.38485 -14.38027 -14.37626 -14.36646 -14.31348
 Alpha  occ. eigenvalues --  -10.34439 -10.31673 -10.31341 -10.29725 -10.29223
 Alpha  occ. eigenvalues --  -10.26584 -10.25309 -10.25061 -10.24997 -10.24990
 Alpha  occ. eigenvalues --  -10.22541 -10.22479 -10.22347 -10.22125 -10.21639
 Alpha  occ. eigenvalues --  -10.21531 -10.21487 -10.21398 -10.21371 -10.21293
 Alpha  occ. eigenvalues --  -10.21281 -10.20734 -10.20603 -10.20503 -10.20336
 Alpha  occ. eigenvalues --  -10.20301 -10.20267 -10.20140 -10.20120 -10.19999
 Alpha  occ. eigenvalues --  -10.19942  -9.37597  -7.98237  -7.65894  -7.13672
 Alpha  occ. eigenvalues --   -7.13117  -7.13080  -6.60028  -5.94596  -5.94274
 Alpha  occ. eigenvalues --   -5.93790  -5.79020  -5.78567  -5.77505  -4.76199
 Alpha  occ. eigenvalues --   -4.76181  -4.75914  -4.18697  -2.32561  -2.32102
 Alpha  occ. eigenvalues --   -2.31290  -2.15161  -2.15133  -2.14253  -2.13894
 Alpha  occ. eigenvalues --   -2.13702  -1.13109  -1.06739  -1.06238  -1.04539
 Alpha  occ. eigenvalues --   -1.04469  -1.04057  -1.01753  -0.96351  -0.94627
 Alpha  occ. eigenvalues --   -0.93774  -0.93512  -0.89126  -0.88325  -0.87184
 Alpha  occ. eigenvalues --   -0.86769  -0.82932  -0.80213  -0.79598  -0.77292
 Alpha  occ. eigenvalues --   -0.76725  -0.76613  -0.76211  -0.76062  -0.75898
 Alpha  occ. eigenvalues --   -0.75860  -0.73973  -0.72991  -0.71918  -0.71668
 Alpha  occ. eigenvalues --   -0.67669  -0.65513  -0.65307  -0.63920  -0.63255
 Alpha  occ. eigenvalues --   -0.62723  -0.62437  -0.62217  -0.61662  -0.61487
 Alpha  occ. eigenvalues --   -0.61211  -0.60622  -0.59385  -0.58068  -0.58004
 Alpha  occ. eigenvalues --   -0.56203  -0.54102  -0.53720  -0.53328  -0.52533
 Alpha  occ. eigenvalues --   -0.52132  -0.51783  -0.51607  -0.51395  -0.50942
 Alpha  occ. eigenvalues --   -0.50478  -0.50179  -0.49846  -0.48688  -0.48061
 Alpha  occ. eigenvalues --   -0.47858  -0.47152  -0.46905  -0.46669  -0.46452
 Alpha  occ. eigenvalues --   -0.46437  -0.46275  -0.46054  -0.45452  -0.45301
 Alpha  occ. eigenvalues --   -0.45066  -0.44788  -0.44303  -0.43830  -0.43712
 Alpha  occ. eigenvalues --   -0.43662  -0.43361  -0.43321  -0.42801  -0.42569
 Alpha  occ. eigenvalues --   -0.42526  -0.42090  -0.41811  -0.41213  -0.40833
 Alpha  occ. eigenvalues --   -0.40799  -0.40393  -0.39619  -0.39175  -0.38914
 Alpha  occ. eigenvalues --   -0.38698  -0.38322  -0.38054  -0.37984  -0.37735
 Alpha  occ. eigenvalues --   -0.37631  -0.37115  -0.36726  -0.36422  -0.36128
 Alpha  occ. eigenvalues --   -0.36009  -0.35071  -0.34685  -0.34255  -0.33747
 Alpha  occ. eigenvalues --   -0.33337  -0.33141  -0.32887  -0.31341  -0.30662
 Alpha  occ. eigenvalues --   -0.30501  -0.29922  -0.29549  -0.28834  -0.28356
 Alpha  occ. eigenvalues --   -0.28114  -0.27987  -0.27625  -0.27524  -0.27315
 Alpha  occ. eigenvalues --   -0.26921  -0.26803  -0.26676  -0.26448  -0.26390
 Alpha  occ. eigenvalues --   -0.26174  -0.25825  -0.24660  -0.24268  -0.24191
 Alpha  occ. eigenvalues --   -0.23422  -0.20158
 Alpha virt. eigenvalues --   -0.12284  -0.05295  -0.04818  -0.04244  -0.03391
 Alpha virt. eigenvalues --   -0.03087  -0.02466  -0.01932  -0.01596  -0.01335
 Alpha virt. eigenvalues --   -0.01157  -0.00472   0.00554   0.00903   0.02260
 Alpha virt. eigenvalues --    0.03033   0.04248   0.04742   0.05770   0.05832
 Alpha virt. eigenvalues --    0.06224   0.06941   0.07502   0.08090   0.08482
 Alpha virt. eigenvalues --    0.08661   0.09116   0.09824   0.10168   0.10361
 Alpha virt. eigenvalues --    0.10767   0.11005   0.11337   0.11530   0.12219
 Alpha virt. eigenvalues --    0.12527   0.12724   0.12844   0.13092   0.13302
 Alpha virt. eigenvalues --    0.13810   0.14035   0.14361   0.14555   0.14604
 Alpha virt. eigenvalues --    0.14888   0.15549   0.15839   0.16088   0.16388
 Alpha virt. eigenvalues --    0.16563   0.16677   0.17160   0.17370   0.17509
 Alpha virt. eigenvalues --    0.17608   0.17933   0.18041   0.18353   0.18760
 Alpha virt. eigenvalues --    0.18828   0.19273   0.19550   0.19630   0.20220
 Alpha virt. eigenvalues --    0.20474   0.20793   0.21490   0.21848   0.22064
 Alpha virt. eigenvalues --    0.22580   0.23466   0.24073   0.24322   0.25010
 Alpha virt. eigenvalues --    0.25380   0.25794   0.26306   0.26357   0.27000
 Alpha virt. eigenvalues --    0.27353   0.27987   0.28552   0.28961   0.29122
 Alpha virt. eigenvalues --    0.29422   0.30026   0.30308   0.30527   0.30890
 Alpha virt. eigenvalues --    0.31853   0.32545   0.33113   0.33135   0.33838
 Alpha virt. eigenvalues --    0.35049   0.35228   0.35236   0.35782   0.36727
 Alpha virt. eigenvalues --    0.37060   0.37528   0.38227   0.38359   0.39172
 Alpha virt. eigenvalues --    0.39868   0.40171   0.40489   0.41190   0.42186
 Alpha virt. eigenvalues --    0.42935   0.44517   0.44970   0.45841   0.46765
 Alpha virt. eigenvalues --    0.47387   0.48064   0.48881   0.49530   0.50097
 Alpha virt. eigenvalues --    0.50524   0.50994   0.51223   0.51467   0.51697
 Alpha virt. eigenvalues --    0.51744   0.52362   0.52681   0.52962   0.53026
 Alpha virt. eigenvalues --    0.53107   0.53595   0.53907   0.54066   0.54221
 Alpha virt. eigenvalues --    0.54614   0.54762   0.54955   0.55153   0.55335
 Alpha virt. eigenvalues --    0.55633   0.55938   0.56198   0.56586   0.56691
 Alpha virt. eigenvalues --    0.56855   0.57200   0.57338   0.57531   0.58579
 Alpha virt. eigenvalues --    0.58864   0.59022   0.59421   0.59481   0.59705
 Alpha virt. eigenvalues --    0.59974   0.60056   0.60324   0.60581   0.60828
 Alpha virt. eigenvalues --    0.61055   0.61295   0.61548   0.61870   0.62443
 Alpha virt. eigenvalues --    0.62591   0.63079   0.63461   0.63742   0.63950
 Alpha virt. eigenvalues --    0.64172   0.64300   0.64666   0.64985   0.65291
 Alpha virt. eigenvalues --    0.65637   0.66495   0.66721   0.67297   0.67890
 Alpha virt. eigenvalues --    0.68005   0.68316   0.69390   0.69557   0.69716
 Alpha virt. eigenvalues --    0.70336   0.70966   0.71200   0.71531   0.71747
 Alpha virt. eigenvalues --    0.72234   0.72750   0.73054   0.73340   0.73797
 Alpha virt. eigenvalues --    0.74225   0.74627   0.75098   0.75390   0.75815
 Alpha virt. eigenvalues --    0.76614   0.77165   0.77608   0.78192   0.79079
 Alpha virt. eigenvalues --    0.79383   0.80126   0.80343   0.81070   0.81423
 Alpha virt. eigenvalues --    0.81526   0.81947   0.82053   0.82243   0.82466
 Alpha virt. eigenvalues --    0.82567   0.82694   0.82895   0.82992   0.83188
 Alpha virt. eigenvalues --    0.83386   0.83561   0.83826   0.84254   0.84691
 Alpha virt. eigenvalues --    0.85088   0.85349   0.85801   0.85988   0.86772
 Alpha virt. eigenvalues --    0.86927   0.87127   0.87339   0.87664   0.88026
 Alpha virt. eigenvalues --    0.88387   0.88638   0.88984   0.89078   0.89365
 Alpha virt. eigenvalues --    0.89557   0.89946   0.90458   0.90536   0.90920
 Alpha virt. eigenvalues --    0.91189   0.91461   0.91613   0.91878   0.92314
 Alpha virt. eigenvalues --    0.92611   0.92716   0.93081   0.93284   0.93650
 Alpha virt. eigenvalues --    0.93834   0.93941   0.94180   0.94495   0.94847
 Alpha virt. eigenvalues --    0.95297   0.95729   0.96059   0.96322   0.96482
 Alpha virt. eigenvalues --    0.97329   0.97728   0.98002   0.98679   0.99209
 Alpha virt. eigenvalues --    0.99321   0.99644   0.99968   1.00460   1.00880
[...]
 0000269,-0.00000048,0.00000037,-0.00000247,0.00000009,0.00000130,0.000
 07563,0.00002119,-0.00001340,-0.00002694,-0.00002819,0.00000755,-0.000
 01488,0.00000691,-0.00001029,-0.00000811,0.00000577,0.00000109,0.00000
 605,-0.00000062,0.00000176,0.00000821,-0.00000600,-0.00000739,-0.00000
 248,0.00000346,-0.00000303,0.00000880,-0.00000469,-0.00000220,0.000004
 74,-0.00000005,0.00000127,-0.00000083,0.00000154,-0.00000028,-0.000017
 65,0.00000654,0.00000639,0.00000021,0.00000096,0.00000146,-0.00000225,
 0.00000189,0.00000137,-0.00000266,0.00000104,0.00000283,-0.00000143,0.
 00000091,-0.00000093,-0.00001151,-0.00000278,0.00001551,-0.00010387,-0
 .00008407,0.00002787,-0.00000688,-0.00000143,0.00000583,-0.00000760,0.
 00004082,-0.00004470,-0.00000799,-0.00002047,0.00002024,0.00002008,-0.
 00003974,0.00002262,-0.00001117,-0.00000421,-0.00000308,0.00000244,0.0
 0000157,-0.00000084,-0.00000454,0.00000036,-0.00000362,-0.00000514,0.0
 0000683,-0.00000810,-0.00000749,0.00000250,-0.00000264,-0.00000637,0.0
 0000089,-0.00000258,-0.00010101,0.00001230,0.00003829,-0.00002516,0.00
 003786,-0.00001916,-0.00000389,-0.00004373,0.00002198,0.00000134,0.000
 00782,-0.00000231,0.00000196,-0.00000014,-0.00000348,0.00000637,-0.000
 01050,-0.00000219,0.00000723,-0.00000462,-0.00000226,0.00000290,0.0000
 0115,0.00000289,0.00000082,0.,0.00000595,-0.00000207,0.00000673,0.0000
 0438,-0.00000139,0.00000175,0.00000499,0.00035466,0.00035508,-0.000567
 88,0.00108078,-0.00435757,-0.00161422,0.00249231,-0.00135700,0.0027695
 2,-0.01191665,-0.00397953,0.00845317,-0.00064754,-0.00015970,0.0004613
 8,-0.00443112,-0.00345515,0.00130241,-0.00025312,-0.00024463,-0.000004
 75,-0.27204576,-0.08418101,0.09411080,-0.00005479,0.00160181,-0.001054
 50,-0.00014341,0.00178117,-0.00067934,0.28574450,-0.00003388,0.0000219
 3,-0.00004330,0.00030317,-0.00052432,0.00010909,-0.00004179,0.00000167
 ,-0.00001843,0.00002165,0.00000970,0.00004477,0.00019493,-0.00004621,0
 .00015737,-0.00005428,0.00000617,-0.00016252,0.00001102,-0.00002879,-0
 .00000417,-0.00002222,0.00003628,-0.00000869,-0.00012159,0.00014013,-0
 .00014790,-0.00014617,-0.00006796,0.00022793,-0.00017477,-0.00031488,-
 0.00005503,0.00007421,0.00016612,-0.00007053,0.00017269,0.00021802,0.0
 0003879,-0.00008538,-0.00000375,0.00009416,-0.00003084,-0.00005842,-0.
 00002868,0.00002314,0.00003495,-0.00000041,-0.00004678,-0.00001785,-0.
 00006206,0.00010467,0.00006960,-0.00000822,0.00005469,0.00002253,0.000
 01890,-0.00002617,-0.00001667,-0.00001310,-0.00000155,0.00002768,-0.00
 000016,0.00000004,0.00000552,-0.00000044,0.00001106,-0.00000185,0.0000
 0219,0.00000842,-0.00000207,-0.00000132,-0.00000412,-0.00000268,-0.000
 00135,-0.00000228,-0.00000271,0.00000068,0.00000264,0.00000258,-0.0000
 0028,0.00000293,0.00000296,-0.00000058,-0.00000585,0.00000494,0.000003
 63,-0.00000116,0.00000632,-0.00000610,0.00002336,-0.00002964,0.0000054
 3,0.00001433,-0.00000429,-0.00001822,0.00001690,-0.00000148,-0.0000010
 5,0.00001706,0.00000658,0.00001203,0.00029064,-0.00006387,0.00000800,-
 0.00019205,-0.00007937,0.00006457,-0.00004136,0.00000759,-0.00002039,-
 0.00000829,0.00001083,0.00002547,0.00001863,-0.00000312,0.00000857,0.0
 0002056,-0.00001597,-0.00001836,-0.00000032,0.00000465,-0.00001398,0.0
 0000769,-0.00000085,0.00000104,0.00000443,-0.00000321,-0.00000274,-0.0
 0000008,0.00000221,-0.00000205,-0.00003666,-0.00000036,0.00000256,0.00
 000070,0.00000102,-0.00000009,-0.00000070,-0.00000203,0.00000046,-0.00
 000404,-0.00000337,0.00000064,-0.00000183,-0.00000291,0.00000082,-0.00
 006555,-0.00003095,0.00005931,0.00007636,0.00008465,0.00000258,0.00000
 034,0.00002422,0.00000942,0.00002877,-0.00000088,0.00004786,0.00000562
 ,-0.00000296,0.00001130,-0.00001535,-0.00001238,-0.00002593,0.00000644
 ,0.00001369,-0.00001204,0.00000105,0.00000207,-0.00000226,-0.00000612,
 -0.00000808,0.00000138,0.00000261,0.00000103,0.00000348,0.00000145,-0.
 00000461,-0.00000084,-0.00000169,-0.00000037,-0.00000144,-0.00000094,-
 0.00008157,-0.00002405,0.00002016,0.00000965,0.00001940,0.00000733,0.0
 0002090,0.00000261,0.00000798,-0.00000135,0.00000282,-0.00000537,-0.00
 000100,-0.00000164,-0.00000217,0.00000208,0.00000801,-0.00000219,-0.00
 000231,0.00000254,-0.00000465,0.00000259,-0.00000095,-0.00000169,-0.00
 000018,0.00000280,0.00000196,-0.00000068,-0.00000117,-0.00000049,0.000
 00059,0.00000039,0.00041935,-0.00083563,-0.00021833,-0.00404159,0.0022
 7709,-0.00493975,-0.00149912,0.00419203,-0.00424302,-0.01692396,-0.002
 15990,0.00877891,-0.00092089,-0.00018108,0.00042735,0.00962033,0.00643
 162,-0.00364186,0.00043703,0.00025465,-0.00024515,-0.08445024,-0.07242
 243,0.02354371,0.00187978,-0.00193679,0.00148351,0.00148162,-0.0020613
 6,0.00177078,0.09362658,0.06693166,0.00002891,-0.00002158,0.00003364,-
 0.00013244,0.00024494,-0.00012266,0.00002032,-0.00001156,0.00000133,0.
 00000282,-0.00000116,-0.00001192,-0.00009424,0.00005663,-0.00007582,0.
 00001743,-0.00002359,0.00007111,0.00000473,0.00004504,0.00001915,-0.00
 000765,-0.00004020,-0.00001849,0.00004862,-0.00013246,0.00004151,0.000
 11425,0.00003023,-0.00011963,0.00001030,0.00015249,0.00016638,-0.00001
 322,-0.00007092,-0.00007015,-0.00006330,-0.00011200,-0.00004952,0.0000
 4491,0.00000354,-0.00003275,0.00001928,0.00003277,0.00002453,-0.000013
 91,-0.00001518,-0.00000709,0.00001995,-0.00000527,0.00002715,-0.000092
 27,-0.00002150,0.00002368,-0.00002930,-0.00001634,-0.00001632,0.000012
 36,0.00000715,0.00000521,-0.00000577,-0.00002426,0.00000479,0.00000263
 ,-0.00000801,0.00001010,-0.00000478,0.00000422,-0.00000943,-0.00000649
 ,0.00000610,-0.00000269,0.00000205,0.00000101,0.00000365,0.00000361,-0
 .00000083,0.00000553,-0.00000194,-0.00000041,-0.00000292,-0.00000377,0
 .00000011,-0.00000412,0.00000400,-0.00000651,-0.00000181,0.00000036,-0
 .00000560,0.00000137,-0.00000512,0.00001519,0.00000978,-0.00000979,0.0
 0001112,0.00001680,-0.00001245,0.00000370,-0.00000258,-0.00001893,-0.0
 0000189,-0.00001360,-0.00016936,0.00006896,0.00005641,0.00010893,0.000
 05746,-0.00003669,0.00003499,0.00002180,0.00000431,0.00000985,-0.00000
 804,-0.00001655,-0.00000703,0.00000042,-0.00000323,-0.00000638,0.00001
 146,0.00000409,-0.00000071,-0.00001099,0.00001279,-0.00000222,-0.00000
 164,-0.00000240,-0.00000431,0.00000327,0.00000293,0.00000058,-0.000000
 99,0.00000081,0.00001664,-0.00000113,0.00000210,-0.00000020,-0.0000003
 6,-0.00000063,0.00000049,0.00000089,-0.00000042,0.00000205,0.00000056,
 0.00000015,0.00000147,0.00000134,0.00000057,0.00007326,0.00002889,-0.0
 0005405,-0.00003713,-0.00000831,-0.00001149,-0.00001068,-0.00000162,0.
 00001043,0.00000724,-0.00000331,0.00000052,0.00000456,-0.00000265,0.00
 000373,0.00000686,-0.00001136,-0.00000368,-0.00000368,0.00000187,-0.00
 000293,-0.00000234,-0.00000362,0.00000002,-0.00000203,-0.00000336,0.00
 000149,-0.00000102,0.00000050,0.00000015,0.00000114,0.00000104,0.00000
 088,0.00000047,-0.00000035,0.00000121,0.00004595,0.00005938,-0.0000200
 9,0.00001013,-0.00001795,0.00004048,0.00001750,0.00004002,0.00000737,-
 0.00000163,-0.00001101,0.00000392,-0.00000200,-0.00000219,-0.00000224,
 0.00000103,0.00002545,0.00001463,-0.00001298,0.00000139,-0.00000711,-0
 .00000683,0.00000549,0.00000307,0.00000085,0.00000186,-0.00000333,0.00
 000009,-0.00000206,0.00000154,0.00000141,-0.00000116,-0.00000410,-0.00
 056140,-0.00029401,-0.00089572,-0.00088711,-0.00444217,-0.00040222,0.0
 0180570,-0.00471011,-0.00355071,-0.01653221,-0.00535566,0.01048295,-0.
 00084957,-0.00032676,0.00038265,0.02623154,0.01052058,-0.00550933,0.00
 129369,0.00047545,-0.00030401,0.09433708,0.02354455,-0.09397505,-0.000
 46861,0.00175911,0.00006442,-0.00123116,0.00142489,0.00023894,-0.10305
 422,-0.02294974,0.09356433,-0.06123140,0.00015387,0.03004326,-0.005585
 07,-0.00457405,0.00425390,-0.00015472,-0.00003400,-0.00001510,0.000065
 41,0.00005137,0.00002175,0.00051783,-0.00004852,0.00043591,-0.00017335
 ,-0.00001069,-0.00035509,0.00014693,0.00005857,0.00010468,-0.00025042,
 0.00000269,-0.00012076,-0.00047818,-0.00011443,-0.00019594,0.00012412,
 0.00001402,0.00013370,0.00098736,0.00068300,-0.00034297,-0.00057551,-0
 .00009940,0.00035161,-0.00095090,-0.00030741,-0.00017373,0.00038991,-0
 .00024313,0.00002342,0.00018301,-0.00028636,0.00061042,-0.00012013,0.0
 0031205,-0.00037695,0.00131600,-0.00033768,0.00023076,-0.00089640,-0.0
 0466038,0.00376967,-0.00033345,0.00004660,-0.00016835,0.00025061,0.000
 35836,0.00091343,-0.00059155,-0.00054047,-0.00074118,0.00001088,-0.000
 87920,-0.00042552,-0.00020585,0.00045805,0.00016301,-0.00024640,0.0006
 2949,0.00011064,-0.00006899,-0.00002817,0.00023839,0.00029589,-0.00032
 534,0.00017030,-0.00016029,0.00019428,-0.00004598,-0.00012676,0.000169
 29,-0.00019327,-0.00004520,-0.00000489,0.00000727,-0.00000148,-0.00000
 450,-0.00002364,0.00014914,-0.00007353,0.00004640,0.00001661,0.0000223
 6,-0.00001460,0.00006116,-0.00000318,0.00000019,0.00004165,0.00000169,
 -0.00000940,-0.00004542,-0.00001372,-0.00002821,0.00001064,0.00011316,
 -0.00000512,0.00005010,0.00011218,0.00007463,-0.00020951,0.00009317,-0
 .00009420,0.00023943,0.00006061,-0.00026102,-0.00007074,0.00005965,0.0
 0006794,0.00007042,-0.00006418,0.00003764,-0.00011360,0.00017258,0.000
 05267,-0.00025852,0.00032785,0.00015470,0.00002607,-0.00001150,0.00000
 421,0.00021290,-0.00017572,-0.00006604,0.00000439,-0.00000606,-0.00005
 207,0.00004632,-0.00004882,-0.00002711,0.00003175,-0.00002524,-0.00007
 481,0.00000840,-0.00003814,0.00003695,0.00132718,0.00305857,0.00025005
 ,-0.00050215,-0.00058492,-0.00108847,0.00064648,0.00010391,0.00022220,
 -0.00001214,-0.00066711,0.00045775,0.00006871,0.00020445,0.00008267,0.
 00004659,0.00014077,-0.00016402,0.00022064,0.00050884,-0.00032994,-0.0
 0024743,-0.00050297,0.00049523,-0.00000259,-0.00014416,0.00011229,0.00
 005947,0.00000124,0.00001515,0.00014074,-0.00008771,0.00015119,0.00001
 448,0.00005889,-0.00006630,0.00056326,-0.00017332,0.00049266,-0.000385
 90,0.00042768,-0.00019037,0.00028508,-0.00005608,-0.00031961,0.0001266
 3,-0.00022435,-0.00004592,-0.00018728,-0.00048232,-0.00007975,0.000047
 66,-0.00010496,0.00007278,-0.00005809,-0.00000077,-0.00000009,0.000049
 45,0.00003591,-0.00013781,-0.00010090,-0.00001555,-0.00005209,-0.00004
 620,-0.00004876,-0.00003134,-0.00002310,-0.00004175,-0.00001850,0.0012
 1224,-0.00170006,-0.00036555,-0.00002723,0.00027607,0.00018667,-0.0005
 9883,-0.00008690,0.00011821,-0.00000178,-0.00014294,-0.00012233,-0.000
 06861,0.00005104,-0.00008102,0.00005020,0.00015046,-0.00026311,-0.0000
 1815,-0.00008548,0.00001385,-0.00005426,-0.00001119,0.00017980,-0.0000
 0162,0.00004653,-0.00002646,-0.00003979,-0.00003269,-0.00000435,-0.000
 01673,0.00000187,0.00000017,0.06517094,-0.01356090,0.00480867,0.008006
 64,-0.00210504,-0.00609754,0.00128201,-0.00000916,0.00000914,0.0000001
 9,0.00000031,-0.00000215,0.00000226,0.00005728,-0.00002283,0.00004079,
 -0.00001737,0.00002269,-0.00003888,-0.00000920,-0.00002974,-0.00000802
 ,0.00001063,0.00003193,0.00000830,-0.00005126,0.00006321,-0.00002243,0
 .00003593,-0.00001922,0.00002282,-0.00006896,-0.00018173,0.00000552,0.
 00004309,0.00006967,-0.00002596,0.00007706,0.00015112,0.00004916,0.000
 06486,-0.00004830,0.00010479,-0.00001913,-0.00009983,-0.00011197,0.000
 02045,0.00006734,0.00003420,0.00016018,-0.00037732,-0.00014592,0.00130
 887,-0.00405877,-0.00047618,0.00006529,0.00002501,0.00007471,-0.000022
 58,-0.00055371,-0.00043062,-0.00032291,-0.00097359,0.00155183,0.000140
 26,0.00012256,0.00021393,0.00001502,-0.00002555,-0.00006564,0.00005178
 ,-0.00009036,-0.00006756,-0.00000561,-0.00000381,-0.00002885,-0.000046
 04,0.00004187,-0.00000215,0.00003164,-0.00002616,-0.00000370,0.0000238
 8,-0.00001371,0.00001353,0.00000023,0.00000415,0.00000106,-0.00000019,
 0.00000131,-0.00000220,0.00000284,-0.00001291,-0.00000124,0.00000164,-
 0.00000052,-0.00000454,0.00000634,-0.00000468,0.00000019,0.00000287,0.
 00000188,0.00000272,0.00001213,0.00000333,-0.00000514,0.00000674,-0.00
 000134,0.00002658,0.00000118,-0.00003308,0.00000757,-0.00005829,0.0000
 9573,-0.00008086,0.00001378,0.00013959,-0.00003328,0.00002705,-0.00001
 834,-0.00000029,-0.00003230,-0.00000629,-0.00001416,-0.00000975,-0.000
 35947,-0.00032895,-0.00023809,0.00007890,0.00004076,0.00001411,-0.0000
 0732,-0.00002764,-0.00005335,0.00005581,0.00002153,0.00000225,0.000002
 97,0.00000687,-0.00000379,-0.00000309,0.00000486,-0.00001759,-0.000013
 64,0.00001755,-0.00000839,0.00000027,-0.00000239,0.00535067,0.00176438
 ,-0.00460634,0.00020345,0.00029252,-0.00001413,-0.00023152,-0.00013592
 ,0.00020714,0.00082007,0.00022711,0.00028466,-0.00009992,0.00001058,-0
 .00005180,-0.00000017,-0.00004412,0.00001658,-0.00045201,-0.00047923,0
 .00041890,-0.00009577,-0.00109061,0.00030541,0.00023701,0.00006980,0.0
 0002556,-0.00001943,-0.00002958,-0.00000366,0.00003853,0.00001352,-0.0
 0003240,0.00001535,-0.00008348,0.00004880,-0.00008797,0.00020726,-0.00
 018859,-0.00057036,-0.00000373,-0.00023135,0.00008412,0.00026944,0.000
 15544,-0.00013891,-0.00007225,0.00020334,0.00018944,-0.00063251,-0.000
 18871,-0.00007052,-0.00002340,-0.00013947,0.00003336,0.00002566,0.0000
 0748,0.00009778,-0.00000689,0.00005947,-0.00001917,-0.00000666,-0.0000
 2918,-0.00002116,-0.00002227,0.00001051,0.00001491,-0.00002469,-0.0000
 2136,0.00081686,-0.00032595,-0.00015451,-0.00010199,0.00023170,0.00005
 555,-0.00054118,-0.00006415,-0.00005877,-0.00014213,-0.00005575,-0.000
 02145,0.00002742,-0.00007871,0.00004271,0.00015328,0.00008763,-0.00021
 106,0.00003419,-0.00001708,0.00003850,-0.00002981,0.00007798,0.0002080
 9,-0.00001497,0.00000190,0.00000898,-0.00000451,-0.00004263,0.00000834
 ,-0.00000432,-0.00001538,0.00001896,0.00899157,0.00726335,0.03368728,-
 0.00064289,-0.02625234,0.00412921,0.00350261,-0.00162203,0.00007901,0.
 00002279,0.00001813,-0.00003667,-0.00002725,-0.00001708,-0.00032550,0.
 00003321,-0.00033032,0.00008094,0.00000471,0.00027933,-0.00009104,-0.0
 0004471,-0.00007265,0.00015241,0.00000876,0.00008402,0.00032839,0.0000
 7022,0.00014631,-0.00009023,-0.00000434,-0.00010541,-0.00054917,-0.000
 36357,0.00016711,0.00031776,0.00005737,-0.00016606,0.00042364,0.000175
 79,0.00012437,-0.00010194,0.00022329,0.00028517,-0.00017892,0.00020085
 ,-0.00061086,0.00006505,-0.00021526,0.00037329,0.00030728,0.00042495,-
 0.00075749,0.00070373,0.00368374,0.00169387,0.00023858,0.00005336,0.00
 023083,-0.00009346,-0.00051558,-0.00093958,0.00132740,-0.00000455,0.00
 148981,0.00007349,0.00061055,0.00034244,0.00013253,-0.00028725,-0.0000
 8279,0.00019719,-0.00048086,-0.00007985,0.00003601,0.00002698,-0.00020
 055,-0.00020117,0.00021049,-0.00016823,0.00010608,-0.00011908,0.000064
 28,0.00009749,-0.00011823,0.00016480,0.00002457,0.00000557,-0.00000213
 ,0.00000332,0.00000138,0.00001581,-0.00008735,0.00003796,-0.00003191,-
 0.00001179,-0.00001460,0.00001321,-0.00003033,0.00000102,-0.00000211,-
 0.00002005,-0.00000027,0.00000055,0.00002349,0.00000786,0.00002278,-0.
 00000515,-0.00006842,-0.00000313,-0.00001929,-0.00007141,-0.00006781,0
 .00023317,-0.00004907,0.00015147,-0.00003923,-0.00022937,-0.00004921,0
 .00011173,-0.00009512,-0.00007301,-0.00004968,0.00002532,-0.00002781,-
 0.00000554,0.00004404,0.00006525,0.00009498,0.00003043,-0.00002795,-0.
 00002309,0.00001732,-0.00004994,-0.00010634,0.00005326,0.00002569,-0.0
 0000663,-0.00000263,0.00003613,-0.00002494,0.00002894,0.00001546,-0.00
 003288,0.00000307,0.00005225,-0.00000719,0.00002190,-0.00002980,-0.002
 20069,-0.00309700,-0.00140952,-0.00019456,-0.00015830,0.00031679,0.000
 13651,0.00014774,-0.00023306,-0.00048191,0.00048014,0.00023134,0.00012
 210,-0.00001816,0.00004695,0.00001962,-0.00001048,-0.00000552,0.000214
 45,0.00032613,-0.00019306,-0.00000683,0.00054367,-0.00128094,-0.000163
 34,-0.00012199,-0.00002361,0.00001164,0.00001598,0.00000245,-0.0000252
 4,-0.00002804,-0.00001420,-0.00000851,0.00003785,-0.00003577,-0.000261
 15,0.00029531,-0.00055332,-0.00080288,0.00056838,0.00001798,-0.0000619
 9,-0.00000672,0.00044719,-0.00012184,-0.00029317,0.00016755,0.00081593
 ,-0.00029593,-0.00009024,-0.00000899,-0.00003413,0.00004647,0.00005315
 ,-0.00012282,-0.00000476,-0.00000400,0.00015623,0.00007657,0.00006552,
 0.00007135,0.00013720,0.00001711,0.00000465,0.00004926,0.00003785,-0.0
 0002529,-0.00000081,-0.00082783,0.00119825,0.00042042,-0.00008745,-0.0
 0025291,-0.00013726,0.00048148,0.00004061,-0.00013232,0.00006691,0.000
 08524,0.00014018,0.00004476,0.00004966,0.00000660,-0.00006656,-0.00009
 814,0.00023137,0.00004188,0.00009554,-0.00000733,0.00004361,-0.0000236
 7,-0.00016509,-0.00000755,-0.00002790,0.00001787,0.00002975,0.00003500
 ,-0.00000250,0.00000195,0.00001308,-0.00000510,-0.03771005,-0.00578345
 ,0.02784588\\0.00000116,0.00000114,0.00000108,0.00000053,0.00000047,0.
 00000014,0.00000046,-0.00000130,-0.00000116,0.00000029,-0.00000109,-0.
 00000083,0.00000033,-0.00000122,-0.00000073,0.00000049,-0.00000072,-0.
 00000068,-0.00000013,-0.00000156,-0.00000050,-0.00000036,-0.00000136,-
 0.00000032,0.00000048,0.00000058,-0.00000045,0.00000037,-0.00000107,-0
 .00000074,-0.00000121,-0.00000071,-0.00000046,-0.00000031,-0.00000135,
 -0.00000051,0.00000004,-0.00000133,0.00000003,-0.00000075,0.,0.0000000
 3,-0.00000091,-0.00000049,0.00000012,-0.00000105,0.00000006,0.00000079
 ,0.00000013,0.00000034,0.00000003,-0.00000084,0.00000043,-0.00000021,-
 0.00000093,-0.00000027,0.00000067,-0.00000098,0.00000003,0.00000106,-0
 .00000072,0.00000033,0.00000128,-0.00000148,-0.00000052,0.00000143,-0.
 00000206,-0.00000066,0.00000106,-0.00000160,-0.00000003,0.00000110,-0.
 00000185,-0.00000025,0.00000126,-0.00000198,-0.00000035,0.00000145,-0.
 00000249,-0.00000093,0.00000137,-0.00000191,-0.00000025,0.00000131,-0.
 00000024,-0.00000176,-0.00000074,-0.00000010,-0.00000121,-0.00000056,-
 0.00000060,-0.00000128,-0.00000031,0.00000020,-0.00000155,-0.00000093,
 0.00000061,-0.00000128,-0.00000112,0.00000072,-0.00000141,-0.00000129,
 0.00000029,-0.00000104,-0.00000081,0.00000013,-0.00000059,-0.00000043,
 0.00000040,-0.00000042,-0.00000052,0.,0.,0.00000021,-0.00000022,0.0000
 0017,0.00000013,0.00000001,-0.00000050,-0.00000018,-0.00000056,-0.0000
 0096,0.00000038,-0.00000136,0.00000028,0.00000123,-0.00000125,0.000000
 07,0.00000094,-0.00000150,0.00000037,0.00000113,-0.00000093,-0.0000004
 4,0.00000063,-0.00000187,-0.00000008,0.00000138,-0.00000168,-0.0000002
 8,0.00000124,-0.00000247,-0.00000085,0.00000136,-0.00000222,-0.0000005
 7,0.00000143,-0.00000190,0.00000057,0.00000025,0.00000057,0.00000055,-
 0.00000042,0.00000093,0.00000027,-0.00000067,0.00000043,0.00000162,0.0
 0000054,0.00000076,0.00000068,-0.00000023,0.00000077,0.00000029,-0.000
 00032,0.00000052,0.00000117,0.00000032,0.00000040,0.00000138,0.0000002
 9,0.00000071,0.00000103,0.00000010,0.00000093,0.00000053,-0.00000043,0
 .00000041,0.00000155,0.00000048,0.00000068,0.00000112,0.00000008,0.000
 00123,0.00000171,-0.00000037,0.00000103,0.00000121,-0.00000006,0.00000
 139,0.00000116,-0.00000042,0.00000110,0.00000178,-0.00000017,0.0000012
 2,0.00000126,0.00000028,0.00000166,0.00000141,-0.00000061,0.00000151,0
 .00000118,-0.00000041,0.00000169,0.00000187,-0.00000040,0.00000140,0.0
 0000172,-0.00000011,0.00000200,0.00000159,-0.00000070,0.00000199,0.000
 00195,-0.00000050,0.00000116,0.00000050,-0.00000067,0.00000037,-0.0000
 0003,-0.00000037,0.00000101,0.00000023,-0.00000072,0.00000053,-0.00000
 076,-0.00000050,0.00000017,-0.00000031,-0.00000003,0.00000101,-0.00000
 022,-0.00000085,0.00000123,0.00000021,-0.00000088,0.00000087,-0.000000
 81,-0.00000093,0.00000025,-0.00000078,-0.00000063,0.00000134,-0.000000
 34,-0.00000115,0.00000084,-0.00000091,-0.00000113,-0.00000031,0.000001
 02,0.00000053\\\@


 SUCCESS-- IF YOU HAVE TRIED TO DO SOMETHING AND FAILED
           YOU ARE BETTER OFF THAN IF YOU HAD TRIED TO DO
           NOTHING AND SUCCEEDED.

                   -- FROM THE BACK OF A SUGAR PACKET
 Job cpu time:       0 days 13 hours 18 minutes 45.2 seconds.
 File lengths (MBytes):  RWF=   6508 Int=      0 D2E=      0 Chk=     53 Scr=      1
 Normal termination of Gaussian 09 at Thu May 11 15:24:29 2023.
