 Entering Gaussian System, Link 0=g09
 Input=AFbr-helio.com
 Output=AFbr-helio.log
 Initial command:
 /home/scr/programs/g09/l1.exe "/home/scr/helius/Gau-21443.inp" -scrdir="/home/scr/helius/"
 Entering Link 1 = /home/scr/programs/g09/l1.exe PID=     21445.
  
 Copyright (c) 1988,1990,1992,1993,1995,1998,2003,2009,2013,
            Gaussian, Inc.  All Rights Reserved.
  
 This is part of the Gaussian(R) 09 program.  It is based on
 the Gaussian(R) 03 system (copyright 2003, Gaussian, Inc.),
 the Gaussian(R) 98 system (copyright 1998, Gaussian, Inc.),
 the Gaussian(R) 94 system (copyright 1995, Gaussian, Inc.),
 the Gaussian 92(TM) system (copyright 1992, Gaussian, Inc.),
 the Gaussian 90(TM) system (copyright 1990, Gaussian, Inc.),
 the Gaussian 88(TM) system (copyright 1988, Gaussian, Inc.),
 the Gaussian 86(TM) system (copyright 1986, Carnegie Mellon
 University), and the Gaussian 82(TM) system (copyright 1983,
 Carnegie Mellon University). Gaussian is a federally registered
 trademark of Gaussian, Inc.
  
 This software contains proprietary and confidential information,
 including trade secrets, belonging to Gaussian, Inc.
  
 This software is provided under written license and may be
 used, copied, transmitted, or stored only in accord with that
 written license.
  
 The following legend is applicable only to US Government
 contracts under FAR:
  
                    RESTRICTED RIGHTS LEGEND
  
 Use, reproduction and disclosure by the US Government is
 subject to restrictions as set forth in subparagraphs (a)
 and (c) of the Commercial Computer Software - Restricted
 Rights clause in FAR 52.227-19.
  
 Gaussian, Inc.
 340 Quinnipiac St., Bldg. 40, Wallingford CT 06492
  
  
 ---------------------------------------------------------------
 Warning -- This program may not be used in any manner that
 competes with the business of Gaussian, Inc. or will provide
 assistance to any competitor of Gaussian, Inc.  The licensee
 of this program is prohibited from giving any competitor of
 Gaussian, Inc. access to this program.  By using this program,
 the user acknowledges that Gaussian, Inc. is engaged in the
 business of creating and licensing software in the field of
 computational chemistry and represents and warrants to the
 licensee that it is not a competitor of Gaussian, Inc. and that
 it will not use this program in any manner prohibited above.
 ---------------------------------------------------------------
  

 Cite this work as:
 Gaussian 09, Revision D.01,
 M. J. Frisch, G. W. Trucks, H. B. Schlegel, G. E. Scuseria, 
 M. A. Robb, J. R. Cheeseman, G. Scalmani, V. Barone, B. Mennucci, 
 G. A. Petersson, H. Nakatsuji, M. Caricato, X. Li, H. P. Hratchian, 
 A. F. Izmaylov, J. Bloino, G. Zheng, J. L. Sonnenberg, M. Hada, 
 M. Ehara, K. Toyota, R. Fukuda, J. Hasegawa, M. Ishida, T. Nakajima, 
 Y. Honda, O. Kitao, H. Nakai, T. Vreven, J. A. Montgomery, Jr., 
 J. E. Peralta, F. Ogliaro, M. Bearpark, J. J. Heyd, E. Brothers, 
 K. N. Kudin, V. N. Staroverov, T. Keith, R. Kobayashi, J. Normand, 
 K. Raghavachari, A. Rendell, J. C. Burant, S. S. Iyengar, J. Tomasi, 
 M. Cossi, N. Rega, J. M. Millam, M. Klene, J. E. Knox, J. B. Cross, 
 V. Bakken, C. Adamo, J. Jaramillo, R. Gomperts, R. E. Stratmann, 
 O. Yazyev, A. J. Austin, R. Cammi, C. Pomelli, J. W. Ochterski, 
 R. L. Martin, K. Morokuma, V. G. Zakrzewski, G. A. Voth, 
 P. Salvador, J. J. Dannenberg, S. Dapprich, A. D. Daniels, 
 O. Farkas, J. B. Foresman, J. V. Ortiz, J. Cioslowski, 
 and D. J. Fox, Gaussian, Inc., Wallingford CT, 2013.
 
 ******************************************
 Gaussian 09:  EM64L-G09RevD.01 24-Apr-2013
                16-Mar-2023 
 ******************************************
 %mem=10000MB
 %nprocshared=8
 Will use up to    8 processors via shared memory.
 -----------------------------------------
 # opt freq=noraman rb3lyp/gen pseudo=read
 -----------------------------------------
 1/14=-1,18=20,19=15,26=3,38=1/1,3;
 2/9=110,12=2,17=6,18=5,40=1/2;
 3/5=7,11=2,16=1,17=8,25=1,30=1,71=1,74=-5,116=1/1,2,3;
 4//1;
 5/5=2,38=5/2;
 6/7=2,8=2,9=2,10=2,28=1/1;
 7//1,2,3,16;
 1/14=-1,18=20,19=15,26=3/3(2);
 2/9=110/2;
 99//99;
 2/9=110/2;
 3/5=7,6=1,11=2,16=1,17=8,25=1,30=1,71=1,74=-5,82=7,116=1/1,2,3;
 4/5=5,16=3,69=1/1;
 5/5=2,38=5/2;
 7//1,2,3,16;
 1/14=-1,18=20,19=15,26=3/3(-5);
 2/9=110/2;
 6/7=2,8=2,9=2,10=2,19=2,28=1/1;
 99/9=1/99;
 --
 af
 --
 Symbolic Z-matrix:
 Charge =  0 Multiplicity = 1
 P                     1.3224    0.12626  -0.03714 
 C                     2.0423   -0.50732   1.5193 
 C                     1.71776  -1.97252   1.79404 
 H                     1.64653   0.12817   2.31861 
 H                     3.12491  -0.3393    1.48315 
 H                     2.1244   -2.27049   2.76507 
 H                     0.63589  -2.13998   1.81266 
 H                     2.15041  -2.63358   1.03673 
 C                     1.93447   1.84134  -0.19582 
 C                     1.29929   2.81674   0.79128 
 H                     1.72171   2.14468  -1.22726 
 H                     3.02413   1.82247  -0.07972 
 H                     1.67399   3.8286    0.6096 
 H                     0.20984   2.83198   0.68417 
 H                     1.53486   2.55808   1.82803 
 C                     2.09496  -0.81642  -1.4027 
 C                     3.62     -0.80639  -1.45931 
 H                     1.66453  -0.40615  -2.32335 
 H                     1.71206  -1.83926  -1.31769 
 H                     3.95859  -1.41526  -2.30337 
 H                     4.01664   0.20295  -1.60112 
 H                     4.06712  -1.22456  -0.55242 
 Au                   -0.93377  -0.03537  -0.08293 
 Br                   -3.40573  -0.22706  -0.13869 
 

 GradGradGradGradGradGradGradGradGradGradGradGradGradGradGradGradGradGrad
 Berny optimization.
 Initialization pass.
                           ----------------------------
                           !    Initial Parameters    !
                           ! (Angstroms and Degrees)  !
 --------------------------                            --------------------------
 ! Name  Definition              Value          Derivative Info.                !
 --------------------------------------------------------------------------------
 ! R1    R(1,2)                  1.8282         estimate D2E/DX2                !
 ! R2    R(1,9)                  1.8279         estimate D2E/DX2                !
 ! R3    R(1,16)                 1.8304         estimate D2E/DX2                !
 ! R4    R(1,23)                 2.2624         estimate D2E/DX2                !
 ! R5    R(2,3)                  1.5257         estimate D2E/DX2                !
 ! R6    R(2,4)                  1.0952         estimate D2E/DX2                !
 ! R7    R(2,5)                  1.0962         estimate D2E/DX2                !
 ! R8    R(3,6)                  1.0941         estimate D2E/DX2                !
 ! R9    R(3,7)                  1.0949         estimate D2E/DX2                !
 ! R10   R(3,8)                  1.0944         estimate D2E/DX2                !
 ! R11   R(9,10)                 1.5262         estimate D2E/DX2                !
 ! R12   R(9,11)                 1.096          estimate D2E/DX2                !
 ! R13   R(9,12)                 1.096          estimate D2E/DX2                !
 ! R14   R(10,13)                1.0942         estimate D2E/DX2                !
 ! R15   R(10,14)                1.0948         estimate D2E/DX2                !
 ! R16   R(10,15)                1.0942         estimate D2E/DX2                !
 ! R17   R(16,17)                1.5261         estimate D2E/DX2                !
 ! R18   R(16,18)                1.096          estimate D2E/DX2                !
 ! R19   R(16,19)                1.0955         estimate D2E/DX2                !
 ! R20   R(17,20)                1.0944         estimate D2E/DX2                !
 ! R21   R(17,21)                1.0937         estimate D2E/DX2                !
 ! R22   R(17,22)                1.0942         estimate D2E/DX2                !
 ! R23   R(23,24)                2.48           estimate D2E/DX2                !
 ! A1    A(2,1,9)              105.4989         estimate D2E/DX2                !
 ! A2    A(2,1,16)             106.8865         estimate D2E/DX2                !
 ! A3    A(2,1,23)             112.6543         estimate D2E/DX2                !
 ! A4    A(9,1,16)             106.0891         estimate D2E/DX2                !
 ! A5    A(9,1,23)             113.5275         estimate D2E/DX2                !
 ! A6    A(16,1,23)            111.6552         estimate D2E/DX2                !
 ! A7    A(1,2,3)              113.7271         estimate D2E/DX2                !
 ! A8    A(1,2,4)              106.139          estimate D2E/DX2                !
 ! A9    A(1,2,5)              107.9214         estimate D2E/DX2                !
 ! A10   A(3,2,4)              110.4242         estimate D2E/DX2                !
 ! A11   A(3,2,5)              111.2993         estimate D2E/DX2                !
 ! A12   A(4,2,5)              106.9801         estimate D2E/DX2                !
 ! A13   A(2,3,6)              110.0181         estimate D2E/DX2                !
 ! A14   A(2,3,7)              111.109          estimate D2E/DX2                !
 ! A15   A(2,3,8)              111.8017         estimate D2E/DX2                !
 ! A16   A(6,3,7)              108.0892         estimate D2E/DX2                !
 ! A17   A(6,3,8)              107.6204         estimate D2E/DX2                !
 ! A18   A(7,3,8)              108.0592         estimate D2E/DX2                !
 ! A19   A(1,9,10)             113.838          estimate D2E/DX2                !
 ! A20   A(1,9,11)             106.0443         estimate D2E/DX2                !
 ! A21   A(1,9,12)             107.9117         estimate D2E/DX2                !
 ! A22   A(10,9,11)            110.5495         estimate D2E/DX2                !
 ! A23   A(10,9,12)            110.8724         estimate D2E/DX2                !
 ! A24   A(11,9,12)            107.3051         estimate D2E/DX2                !
 ! A25   A(9,10,13)            109.9442         estimate D2E/DX2                !
 ! A26   A(9,10,14)            111.0866         estimate D2E/DX2                !
 ! A27   A(9,10,15)            111.8478         estimate D2E/DX2                !
 ! A28   A(13,10,14)           108.1586         estimate D2E/DX2                !
 ! A29   A(13,10,15)           107.5896         estimate D2E/DX2                !
 ! A30   A(14,10,15)           108.073          estimate D2E/DX2                !
 ! A31   A(1,16,17)            116.4919         estimate D2E/DX2                !
 ! A32   A(1,16,18)            105.5546         estimate D2E/DX2                !
 ! A33   A(1,16,19)            105.989          estimate D2E/DX2                !
 ! A34   A(17,16,18)           111.0284         estimate D2E/DX2                !
 ! A35   A(17,16,19)           110.9951         estimate D2E/DX2                !
 ! A36   A(18,16,19)           106.1073         estimate D2E/DX2                !
 ! A37   A(16,17,20)           109.5188         estimate D2E/DX2                !
 ! A38   A(16,17,21)           111.9176         estimate D2E/DX2                !
 ! A39   A(16,17,22)           112.0303         estimate D2E/DX2                !
 ! A40   A(20,17,21)           107.5305         estimate D2E/DX2                !
 ! A41   A(20,17,22)           107.4684         estimate D2E/DX2                !
 ! A42   A(21,17,22)           108.1769         estimate D2E/DX2                !
 ! A43   L(1,23,24,14,-1)      180.3583         estimate D2E/DX2                !
 ! A44   L(1,23,24,14,-2)      179.9582         estimate D2E/DX2                !
 ! D1    D(9,1,2,3)           -176.3835         estimate D2E/DX2                !
 ! D2    D(9,1,2,4)             62.0144         estimate D2E/DX2                !
 ! D3    D(9,1,2,5)            -52.3859         estimate D2E/DX2                !
 ! D4    D(16,1,2,3)           -63.7566         estimate D2E/DX2                !
 ! D5    D(16,1,2,4)           174.6413         estimate D2E/DX2                !
 ! D6    D(16,1,2,5)            60.241          estimate D2E/DX2                !
 ! D7    D(23,1,2,3)            59.2401         estimate D2E/DX2                !
 ! D8    D(23,1,2,4)           -62.362          estimate D2E/DX2                !
 ! D9    D(23,1,2,5)          -176.7623         estimate D2E/DX2                !
 ! D10   D(2,1,9,10)           -71.9397         estimate D2E/DX2                !
 ! D11   D(2,1,9,11)           166.2994         estimate D2E/DX2                !
 ! D12   D(2,1,9,12)            51.5763         estimate D2E/DX2                !
 ! D13   D(16,1,9,10)          174.8748         estimate D2E/DX2                !
 ! D14   D(16,1,9,11)           53.114          estimate D2E/DX2                !
 ! D15   D(16,1,9,12)          -61.6091         estimate D2E/DX2                !
 ! D16   D(23,1,9,10)           51.8868         estimate D2E/DX2                !
 ! D17   D(23,1,9,11)          -69.874          estimate D2E/DX2                !
 ! D18   D(23,1,9,12)          175.4029         estimate D2E/DX2                !
 ! D19   D(2,1,16,17)          -55.1627         estimate D2E/DX2                !
 ! D20   D(2,1,16,18)         -178.8668         estimate D2E/DX2                !
 ! D21   D(2,1,16,19)           68.8409         estimate D2E/DX2                !
 ! D22   D(9,1,16,17)           57.0597         estimate D2E/DX2                !
 ! D23   D(9,1,16,18)          -66.6444         estimate D2E/DX2                !
 ! D24   D(9,1,16,19)         -178.9367         estimate D2E/DX2                !
 ! D25   D(23,1,16,17)        -178.7786         estimate D2E/DX2                !
 ! D26   D(23,1,16,18)          57.5173         estimate D2E/DX2                !
 ! D27   D(23,1,16,19)         -54.775          estimate D2E/DX2                !
 ! D28   D(1,2,3,6)           -176.5516         estimate D2E/DX2                !
 ! D29   D(1,2,3,7)            -56.8898         estimate D2E/DX2                !
 ! D30   D(1,2,3,8)             63.9286         estimate D2E/DX2                !
 ! D31   D(4,2,3,6)            -57.3637         estimate D2E/DX2                !
 ! D32   D(4,2,3,7)             62.2982         estimate D2E/DX2                !
 ! D33   D(4,2,3,8)           -176.8835         estimate D2E/DX2                !
 ! D34   D(5,2,3,6)             61.2992         estimate D2E/DX2                !
 ! D35   D(5,2,3,7)           -179.039          estimate D2E/DX2                !
 ! D36   D(5,2,3,8)            -58.2206         estimate D2E/DX2                !
 ! D37   D(1,9,10,13)         -177.3056         estimate D2E/DX2                !
 ! D38   D(1,9,10,14)          -57.6196         estimate D2E/DX2                !
 ! D39   D(1,9,10,15)           63.2326         estimate D2E/DX2                !
 ! D40   D(11,9,10,13)         -58.0751         estimate D2E/DX2                !
 ! D41   D(11,9,10,14)          61.611          estimate D2E/DX2                !
 ! D42   D(11,9,10,15)        -177.5368         estimate D2E/DX2                !
 ! D43   D(12,9,10,13)          60.8016         estimate D2E/DX2                !
 ! D44   D(12,9,10,14)        -179.5123         estimate D2E/DX2                !
 ! D45   D(12,9,10,15)         -58.6601         estimate D2E/DX2                !
 ! D46   D(1,16,17,20)         179.0204         estimate D2E/DX2                !
 ! D47   D(1,16,17,21)         -61.829          estimate D2E/DX2                !
 ! D48   D(1,16,17,22)          59.8763         estimate D2E/DX2                !
 ! D49   D(18,16,17,20)        -60.1426         estimate D2E/DX2                !
 ! D50   D(18,16,17,21)         59.008          estimate D2E/DX2                !
 ! D51   D(18,16,17,22)       -179.2866         estimate D2E/DX2                !
 ! D52   D(19,16,17,20)         57.626          estimate D2E/DX2                !
 ! D53   D(19,16,17,21)        176.7766         estimate D2E/DX2                !
 ! D54   D(19,16,17,22)        -61.5181         estimate D2E/DX2                !
 --------------------------------------------------------------------------------
 Trust Radius=3.00D-01 FncErr=1.00D-07 GrdErr=1.00D-06
 Number of steps in this run=    131 maximum allowed number of steps=    144.
 GradGradGradGradGradGradGradGradGradGradGradGradGradGradGradGradGradGrad

                          Input orientation:                          
 ---------------------------------------------------------------------
 Center     Atomic      Atomic             Coordinates (Angstroms)
 Number     Number       Type             X           Y           Z
 ---------------------------------------------------------------------
      1         15           0        1.322400    0.126256   -0.037136
      2          6           0        2.042300   -0.507320    1.519300
      3          6           0        1.717757   -1.972515    1.794043
      4          1           0        1.646529    0.128171    2.318613
      5          1           0        3.124912   -0.339299    1.483145
      6          1           0        2.124403   -2.270487    2.765068
      7          1           0        0.635886   -2.139984    1.812664
      8          1           0        2.150407   -2.633582    1.036728
      9          6           0        1.934469    1.841344   -0.195815
     10          6           0        1.299286    2.816738    0.791277
     11          1           0        1.721714    2.144678   -1.227264
     12          1           0        3.024133    1.822465   -0.079721
     13          1           0        1.673992    3.828603    0.609598
     14          1           0        0.209839    2.831983    0.684167
     15          1           0        1.534856    2.558084    1.828027
     16          6           0        2.094956   -0.816415   -1.402698
     17          6           0        3.619995   -0.806393   -1.459309
     18          1           0        1.664532   -0.406151   -2.323349
     19          1           0        1.712062   -1.839261   -1.317687
     20          1           0        3.958593   -1.415256   -2.303368
     21          1           0        4.016643    0.202953   -1.601117
     22          1           0        4.067124   -1.224555   -0.552416
     23         79           0       -0.933773   -0.035369   -0.082928
     24         35           0       -3.405725   -0.227056   -0.138686
 ---------------------------------------------------------------------
                    Distance matrix (angstroms):
                    1          2          3          4          5
     1  P    0.000000
     2  C    1.828160   0.000000
     3  C    2.813248   1.525650   0.000000
     4  H    2.377944   1.095164   2.166363   0.000000
     5  H    2.403548   1.096169   2.178104   1.761293   0.000000
     6  H    3.773584   2.160425   1.094092   2.486211   2.524645
     7  H    3.004814   2.174777   1.094914   2.534149   3.089709
     8  H    3.074977   2.183015   1.094405   3.086163   2.532328
     9  C    1.827932   2.910235   4.307206   3.056177   2.998544
    10  C    2.815226   3.483023   4.910968   3.111547   3.711086
    11  H    2.376948   3.831381   5.106818   4.079853   3.935152
    12  H    2.403088   2.991448   4.429389   3.243521   2.669444
    13  H    3.774819   4.445609   5.920962   4.076111   4.498851
    14  H    3.013143   3.899526   5.156437   3.470748   4.380987
    15  H    3.072093   3.122421   4.534417   2.481456   3.322958
    16  C    1.830364   2.938773   3.420234   3.865422   3.101054
    17  C    2.858558   3.383885   3.944952   4.363562   3.020152
    18  H    2.372189   3.862499   4.405593   4.672648   4.077570
    19  H    2.378004   3.151447   3.114587   4.134944   3.477167
    20  H    3.802838   4.371421   4.703261   5.393562   4.023728
    21  H    3.116226   3.760255   4.641621   4.581192   3.256055
    22  H    3.102211   2.984350   3.403651   3.991485   2.411421
    23  Au   2.262418   3.412753   3.782349   3.528754   4.360950
    24  Br   4.742395   5.701618   5.747359   5.629367   6.729945
                    6          7          8          9         10
     6  H    0.000000
     7  H    1.771944   0.000000
     8  H    1.766260   1.771860   0.000000
     9  C    5.070509   4.644489   4.646585   0.000000
    10  C    5.518743   5.104158   5.521833   1.526172   0.000000
    11  H    5.966117   5.364561   5.304829   1.095976   2.169013
    12  H    5.065036   4.998584   4.676132   1.095994   2.173088
    13  H    6.484429   6.176493   6.493785   2.160032   1.094204
    14  H    5.833601   5.116198   5.810551   2.174875   1.094806
    15  H    4.953858   4.783328   5.287575   2.183883   1.094187
    16  C    4.414234   3.770845   3.042363   2.923355   4.318150
    17  C    4.714417   4.624844   3.424691   3.383478   4.855709
    18  H    5.438678   4.601184   4.060498   3.106525   4.496811
    19  H    4.126120   3.323806   2.523165   3.854207   5.128005
    20  H    5.457538   5.339226   3.988746   4.375420   5.878649
    21  H    5.363026   5.345351   4.299650   2.999108   4.465361
    22  H    3.984199   4.266733   2.860863   3.751682   5.079221
    23  Au   4.739122   3.238287   4.185273   3.429520   3.726299
    24  Br   6.571888   4.878697   6.167947   5.727060   5.680373
                   11         12         13         14         15
    11  H    0.000000
    12  H    1.765495   0.000000
    13  H    2.492377   2.514484   0.000000
    14  H    2.532138   3.085920   1.772726   0.000000
    15  H    3.088790   2.529542   1.765827   1.771752   0.000000
    16  C    2.989675   3.094725   5.079640   4.606461   4.705161
    17  C    3.516552   3.028070   5.436036   5.427839   5.145298
    18  H    2.776941   3.442254   5.151253   4.652612   5.102688
    19  H    3.984977   4.081951   5.986699   5.299492   5.409581
    20  H    4.339903   4.037407   6.418943   6.404495   6.223372
    21  H    3.029317   2.433627   4.849805   5.160046   4.844062
    22  H    4.160300   3.255089   5.710671   5.732651   5.136852
    23  Au   3.621287   4.372251   4.712782   3.180879   4.058556
    24  Br   5.753326   6.748858   6.543074   4.806985   6.002858
                   16         17         18         19         20
    16  C    0.000000
    17  C    1.526122   0.000000
    18  H    1.095983   2.174993   0.000000
    19  H    1.095467   2.174185   1.751405   0.000000
    20  H    2.154753   1.094440   2.506274   2.489628   0.000000
    21  H    2.184345   1.093718   2.534769   3.092259   1.764972
    22  H    2.186093   1.094184   3.094905   2.551435   1.764647
    23  Au   3.394853   4.819306   3.450819   3.432069   5.547043
    24  Br   5.674730   7.172198   5.523797   5.493723   7.767294
                   21         22         23         24
    21  H    0.000000
    22  H    1.772033   0.000000
    23  Au   5.183465   5.161739   0.000000
    24  Br   7.577279   7.550474   2.480000   0.000000
 Stoichiometry    C6H15AuBrP
 Framework group  C1[X(C6H15AuBrP)]
 Deg. of freedom    66
 Full point group                 C1      NOp   1
 Largest Abelian subgroup         C1      NOp   1
 Largest concise Abelian subgroup C1      NOp   1
                         Standard orientation:                         
 ---------------------------------------------------------------------
 Center     Atomic      Atomic             Coordinates (Angstroms)
 Number     Number       Type             X           Y           Z
 ---------------------------------------------------------------------
      1         15           0        1.678397    0.111162   -0.044590
      2          6           0        2.402925   -0.529589    1.506753
      3          6           0        2.048270   -1.985261    1.794586
      4          1           0        2.031862    0.119584    2.306922
      5          1           0        3.488575   -0.386777    1.456196
      6          1           0        2.460052   -2.286758    2.762353
      7          1           0        0.963154   -2.127642    1.827599
      8          1           0        2.456136   -2.660603    1.036115
      9          6           0        2.327669    1.810719   -0.221472
     10          6           0        1.727425    2.806330    0.767299
     11          1           0        2.109080    2.112750   -1.252083
     12          1           0        3.417976    1.767425   -0.118720
     13          1           0        2.122976    3.808196    0.574721
     14          1           0        0.637364    2.846040    0.673549
     15          1           0        1.969914    2.548472    1.802651
     16          6           0        2.411995   -0.857146   -1.413694
     17          6           0        3.936036   -0.882604   -1.489182
     18          1           0        1.979650   -0.442542   -2.331496
     19          1           0        2.006800   -1.870375   -1.317605
     20          1           0        4.249999   -1.504105   -2.333553
     21          1           0        4.353961    0.116474   -1.642148
     22          1           0        4.384727   -1.305571   -0.585294
     23         79           0       -0.581289    0.001301   -0.061528
     24         35           0       -3.057495   -0.133700   -0.085582
 ---------------------------------------------------------------------
 Rotational constants (GHZ):      1.1679579      0.3091699      0.2913893
 General basis read from cards:  (5D, 7F)
 ======================================================================================================
                                       Pseudopotential Parameters
 ======================================================================================================
  Center     Atomic      Valence      Angular      Power
  Number     Number     Electrons     Momentum     of R      Exponent        Coefficient   SO-Coeffient
 ======================================================================================================
    1         15
                                   No pseudopotential on this center.
    2          6
                                   No pseudopotential on this center.
    3          6
                                   No pseudopotential on this center.
    4          1
                                   No pseudopotential on this center.
    5          1
                                   No pseudopotential on this center.
    6          1
                                   No pseudopotential on this center.
    7          1
                                   No pseudopotential on this center.
    8          1
                                   No pseudopotential on this center.
    9          6
                                   No pseudopotential on this center.
   10          6
                                   No pseudopotential on this center.
   11          1
                                   No pseudopotential on this center.
   12          1
                                   No pseudopotential on this center.
   13          1
                                   No pseudopotential on this center.
   14          1
                                   No pseudopotential on this center.
   15          1
                                   No pseudopotential on this center.
   16          6
                                   No pseudopotential on this center.
   17          6
                                   No pseudopotential on this center.
   18          1
                                   No pseudopotential on this center.
   19          1
                                   No pseudopotential on this center.
   20          1
                                   No pseudopotential on this center.
   21          1
                                   No pseudopotential on this center.
   22          1
                                   No pseudopotential on this center.
   23         79           19
                                      G and up 
                                                     1      622.6287956      -60.00000000    0.00000000
                                                     2      136.2843607     -555.52923120    0.00000000
                                                     2       33.1549781     -168.00197850    0.00000000
                                                     2        9.9894895      -63.03998750    0.00000000
                                                     2        3.0481312       -4.25166810    0.00000000
                                      S - G
                                                     0      194.7374304        3.00000000    0.00000000
                                                     1      351.5327447       38.60208800    0.00000000
                                                     2      122.3270402      864.83707270    0.00000000
                                                     2       32.0914617      374.99355200    0.00000000
                                                     2        5.2451812      289.79101000    0.00000000
                                                     2        4.4916223     -152.45327730    0.00000000
                                      P - G
                                                     0      420.6158801        2.00000000    0.00000000
                                                     1      109.4417815       73.88856250    0.00000000
                                                     2       34.1714280      326.67298720    0.00000000
                                                     2        5.9879750      126.58145910    0.00000000
                                      D - G
                                                     0      219.2666158        3.00000000    0.00000000
                                                     1      122.7297786       55.67931490    0.00000000
                                                     2       63.1063369      449.19873350    0.00000000
                                                     2       18.3684520      215.02690910    0.00000000
                                                     2        4.4972844       64.08409950    0.00000000
                                      F - G
                                                     0      108.5506037        4.00000000    0.00000000
                                                     1       56.4795527       51.80653350    0.00000000
                                                     2       29.2069159      231.21831130    0.00000000
                                                     2        9.5440543      119.00473860    0.00000000
                                                     2        2.8965118       15.34241880    0.00000000
   24         35
                                   No pseudopotential on this center.
 ======================================================================================================
 There are   217 symmetry adapted cartesian basis functions of A   symmetry.
 There are   202 symmetry adapted basis functions of A   symmetry.
   202 basis functions,   411 primitive gaussians,   217 cartesian basis functions
    60 alpha electrons       60 beta electrons
       nuclear repulsion energy       961.2071758107 Hartrees.
 NAtoms=   24 NActive=   24 NUniq=   24 SFac= 1.00D+00 NAtFMM=   60 NAOKFM=F Big=F
 Integral buffers will be    131072 words long.
 Raffenetti 2 integral format.
 Two-electron integral symmetry is turned on.
 One-electron integrals computed using PRISM.
   1 Symmetry operations used in ECPInt.
 ECPInt:  NShTT=    3655 NPrTT=   18009 LenC2=    3436 LenP2D=   11592.
 LDataN:  DoStor=T MaxTD1= 7 Len=  274
 NBasis=   202 RedAO= T EigKep=  2.33D-03  NBF=   202
 NBsUse=   202 1.00D-06 EigRej= -1.00D+00 NBFU=   202
 Defaulting to unpruned grid for atomic number  79.
 ExpMin= 2.79D-02 ExpMax= 5.74D+05 ExpMxC= 5.74D+03 IAcc=3 IRadAn=         5 AccDes= 0.00D+00
 Harris functional with IExCor=  402 and IRadAn=       5 diagonalized for initial guess.
 HarFok:  IExCor=  402 AccDes= 0.00D+00 IRadAn=         5 IDoV= 1 UseB2=F ITyADJ=14
 ICtDFT=  3500011 ScaDFX=  1.000000  1.000000  1.000000  1.000000
 Defaulting to unpruned grid for atomic number  79.
 Defaulting to unpruned grid for atomic number  79.
 Defaulting to unpruned grid for atomic number  79.
 Defaulting to unpruned grid for atomic number  79.
 Defaulting to unpruned grid for atomic number  79.
 Defaulting to unpruned grid for atomic number  79.
 Defaulting to unpruned grid for atomic number  79.
 Defaulting to unpruned grid for atomic number  79.
 FoFCou: FMM=F IPFlag=           0 FMFlag=      100000 FMFlg1=           0
         NFxFlg=           0 DoJE=T BraDBF=F KetDBF=T FulRan=T
         wScrn=  0.000000 ICntrl=     500 IOpCl=  0 I1Cent=   200000004 NGrid=           0
         NMat0=    1 NMatS0=      1 NMatT0=    0 NMatD0=    1 NMtDS0=    0 NMtDT0=    0
 Petite list used in FoFCou.
 Keep R1 ints in memory in canonical form, NReq=215539953.
 Requested convergence on RMS density matrix=1.00D-08 within 128 cycles.
 Requested convergence on MAX density matrix=1.00D-06.
 Requested convergence on             energy=1.00D-06.
 No special actions if energy rises.
 Defaulting to unpruned grid for atomic number  79.
 Defaulting to unpruned grid for atomic number  79.
 Defaulting to unpruned grid for atomic number  79.
 Defaulting to unpruned grid for atomic number  79.
 Defaulting to unpruned grid for atomic number  79.
 Defaulting to unpruned grid for atomic number  79.
 Defaulting to unpruned grid for atomic number  79.
 Defaulting to unpruned grid for atomic number  79.
 SCF Done:  E(RB3LYP) =  -3286.01727210     A.U. after   12 cycles
            NFock= 12  Conv=0.89D-08     -V/T= 2.0297

 **********************************************************************

            Population analysis using the SCF density.

 **********************************************************************

 Orbital symmetries:
       Occupied  (A) (A) (A) (A) (A) (A) (A) (A) (A) (A) (A) (A)
                 (A) (A) (A) (A) (A) (A) (A) (A) (A) (A) (A) (A)
                 (A) (A) (A) (A) (A) (A) (A) (A) (A) (A) (A) (A)
                 (A) (A) (A) (A) (A) (A) (A) (A) (A) (A) (A) (A)
                 (A) (A) (A) (A) (A) (A) (A) (A) (A) (A) (A) (A)
       Virtual   (A) (A) (A) (A) (A) (A) (A) (A) (A) (A) (A) (A)
                 (A) (A) (A) (A) (A) (A) (A) (A) (A) (A) (A) (A)
                 (A) (A) (A) (A) (A) (A) (A) (A) (A) (A) (A) (A)
                 (A) (A) (A) (A) (A) (A) (A) (A) (A) (A) (A) (A)
                 (A) (A) (A) (A) (A) (A) (A) (A) (A) (A) (A) (A)
                 (A) (A) (A) (A) (A) (A) (A) (A) (A) (A) (A) (A)
                 (A) (A) (A) (A) (A) (A) (A) (A) (A) (A) (A) (A)
                 (A) (A) (A) (A) (A) (A) (A) (A) (A) (A) (A) (A)
                 (A) (A) (A) (A) (A) (A) (A) (A) (A) (A) (A) (A)
                 (A) (A) (A) (A) (A) (A) (A) (A) (A) (A) (A) (A)
                 (A) (A) (A) (A) (A) (A) (A) (A) (A) (A) (A) (A)
                 (A) (A) (A) (A) (A) (A) (A) (A) (A) (A)
 The electronic state is 1-A.
 Alpha  occ. eigenvalues -- -482.59734 -77.12578 -61.68336 -56.25134 -56.24940
 Alpha  occ. eigenvalues --  -56.24938 -10.21729 -10.21706 -10.21631 -10.20538
 Alpha  occ. eigenvalues --  -10.19782 -10.19679  -8.45434  -6.60647  -6.46662
 Alpha  occ. eigenvalues --   -6.45998  -6.45996  -4.76781  -4.76771  -4.76578
 Alpha  occ. eigenvalues --   -4.16437  -2.58697  -2.58502  -2.58501  -2.57973
 Alpha  occ. eigenvalues --   -2.57973  -2.31085  -2.28966  -2.28952  -0.83530
 Alpha  occ. eigenvalues --   -0.79025  -0.78807  -0.69939  -0.67422  -0.65725
 Alpha  occ. eigenvalues --   -0.64704  -0.56938  -0.50134  -0.48569  -0.48253
 Alpha  occ. eigenvalues --   -0.46717  -0.44974  -0.43916  -0.41512  -0.40801
 Alpha  occ. eigenvalues --   -0.40492  -0.39358  -0.39146  -0.37980  -0.37664
 Alpha  occ. eigenvalues --   -0.35404  -0.35341  -0.32167  -0.32086  -0.29936
 Alpha  occ. eigenvalues --   -0.29928  -0.27241  -0.26421  -0.22303  -0.22287
 Alpha virt. eigenvalues --   -0.01256  -0.01052   0.00884   0.03310   0.05155
 Alpha virt. eigenvalues --    0.05440   0.07662   0.08751   0.09925   0.10124
 Alpha virt. eigenvalues --    0.10469   0.11323   0.12663   0.13781   0.13958
 Alpha virt. eigenvalues --    0.14897   0.15189   0.15526   0.15995   0.17254
 Alpha virt. eigenvalues --    0.18420   0.18511   0.19767   0.19988   0.20747
 Alpha virt. eigenvalues --    0.22508   0.23148   0.26082   0.30793   0.35764
 Alpha virt. eigenvalues --    0.36401   0.38715   0.39604   0.39968   0.41788
 Alpha virt. eigenvalues --    0.42967   0.48476   0.49429   0.50187   0.50408
 Alpha virt. eigenvalues --    0.53835   0.54087   0.55931   0.56129   0.56557
 Alpha virt. eigenvalues --    0.57636   0.58214   0.58832   0.59895   0.60690
 Alpha virt. eigenvalues --    0.61636   0.62620   0.63259   0.64692   0.68857
 Alpha virt. eigenvalues --    0.71130   0.73364   0.76835   0.78724   0.80436
 Alpha virt. eigenvalues --    0.81454   0.82046   0.83191   0.83925   0.84790
 Alpha virt. eigenvalues --    0.85356   0.85652   0.86583   0.86875   0.88164
 Alpha virt. eigenvalues --    0.88721   0.89613   0.91093   0.91985   0.93893
 Alpha virt. eigenvalues --    0.96237   0.97692   0.98429   0.98577   0.98987
 Alpha virt. eigenvalues --    1.00860   1.01541   1.02272   1.03161   1.08047
 Alpha virt. eigenvalues --    1.16886   1.25228   1.35521   1.47128   1.49642
 Alpha virt. eigenvalues --    1.50208   1.52557   1.53372   1.56066   1.65621
 Alpha virt. eigenvalues --    1.68418   1.73977   1.81526   1.82270   1.89352
 Alpha virt. eigenvalues --    1.90282   1.91675   1.94051   1.94340   1.95382
 Alpha virt. eigenvalues --    1.96095   1.96533   1.98127   1.98486   1.99640
 Alpha virt. eigenvalues --    1.99737   2.00902   2.01030   2.01420   2.02328
 Alpha virt. eigenvalues --    2.03098   2.03615   2.10282   2.11217   2.12361
 Alpha virt. eigenvalues --    2.16872   2.23665   2.25132   2.25866   2.26871
 Alpha virt. eigenvalues --    2.27461   2.29737   2.30600   2.31156   2.31978
 Alpha virt. eigenvalues --    2.32384   2.32611   2.33102   2.57839   2.58826
 Alpha virt. eigenvalues --    2.62326   2.65683   8.66489  15.59168  15.59892
 Alpha virt. eigenvalues --   15.67713  43.17122
          Condensed to atoms (all electrons):
               1          2          3          4          5          6
     1  P   13.606299   0.316732  -0.039001  -0.033977  -0.031759   0.004947
     2  C    0.316732   5.230128   0.363977   0.374515   0.356319  -0.028220
     3  C   -0.039001   0.363977   5.065916  -0.027184  -0.032063   0.374652
     4  H   -0.033977   0.374515  -0.027184   0.525990  -0.030078  -0.004916
     5  H   -0.031759   0.356319  -0.032063  -0.030078   0.564927  -0.004015
     6  H    0.004947  -0.028220   0.374652  -0.004916  -0.004015   0.549684
     7  H   -0.010492  -0.032880   0.384738  -0.003127   0.004059  -0.026453
     8  H   -0.006675  -0.038247   0.381479   0.004501  -0.003763  -0.030065
     9  C    0.313423  -0.032251   0.001816  -0.001580  -0.002579  -0.000061
    10  C   -0.038508  -0.002186   0.000070   0.001271  -0.000149   0.000000
    11  H   -0.029952   0.002137  -0.000029   0.000037  -0.000002   0.000001
    12  H   -0.031855  -0.004776   0.000004  -0.000313   0.003490  -0.000003
    13  H    0.004874  -0.000019   0.000000  -0.000059  -0.000006   0.000000
    14  H   -0.011794  -0.000047  -0.000005  -0.000006   0.000003   0.000000
    15  H   -0.005764   0.001688  -0.000016   0.003117   0.000186   0.000003
    16  C    0.305343  -0.029369  -0.001669   0.002261  -0.004749   0.000012
    17  C   -0.025941  -0.003856  -0.000791   0.000020   0.002069  -0.000004
    18  H   -0.033769   0.002173   0.000049  -0.000026  -0.000023   0.000001
    19  H   -0.032421  -0.002619   0.001586   0.000016  -0.000172  -0.000046
    20  H    0.004386   0.000032  -0.000003   0.000001  -0.000072   0.000000
    21  H   -0.007650  -0.000227   0.000039  -0.000011  -0.000001   0.000000
    22  H   -0.007588   0.001781   0.000397   0.000010   0.002728  -0.000012
    23  Au   0.365411  -0.032478  -0.000921  -0.005238   0.005384  -0.000472
    24  Br  -0.003895   0.000022  -0.000015  -0.000010  -0.000001   0.000000
               7          8          9         10         11         12
     1  P   -0.010492  -0.006675   0.313423  -0.038508  -0.029952  -0.031855
     2  C   -0.032880  -0.038247  -0.032251  -0.002186   0.002137  -0.004776
     3  C    0.384738   0.381479   0.001816   0.000070  -0.000029   0.000004
     4  H   -0.003127   0.004501  -0.001580   0.001271   0.000037  -0.000313
     5  H    0.004059  -0.003763  -0.002579  -0.000149  -0.000002   0.003490
     6  H   -0.026453  -0.030065  -0.000061   0.000000   0.000001  -0.000003
     7  H    0.491390  -0.028354   0.000016  -0.000005   0.000000   0.000000
     8  H   -0.028354   0.559959   0.000002  -0.000001   0.000000   0.000001
     9  C    0.000016   0.000002   5.237720   0.365329   0.370791   0.359188
    10  C   -0.000005  -0.000001   0.365329   5.063013  -0.028069  -0.032308
    11  H    0.000000   0.000000   0.370791  -0.028069   0.532338  -0.029404
    12  H    0.000000   0.000001   0.359188  -0.032308  -0.029404   0.561035
    13  H    0.000000   0.000000  -0.028949   0.373918  -0.005239  -0.003814
    14  H   -0.000001   0.000000  -0.032085   0.384613  -0.003194   0.003927
    15  H    0.000001   0.000001  -0.038196   0.381631   0.004534  -0.003397
    16  C   -0.000211   0.001918  -0.030829   0.001773  -0.001283  -0.002836
    17  C    0.000020   0.000343  -0.004067   0.000082  -0.000265   0.001535
    18  H   -0.000009   0.000009  -0.002768   0.000011   0.001840  -0.000192
    19  H   -0.000087   0.001897   0.002032  -0.000024   0.000040  -0.000035
    20  H    0.000000  -0.000022   0.000029   0.000000  -0.000017  -0.000045
    21  H   -0.000001  -0.000006   0.002405  -0.000008   0.000461   0.002816
    22  H   -0.000011   0.001235  -0.000333  -0.000007   0.000034   0.000064
    23  Au   0.010606  -0.000988  -0.033968  -0.000259  -0.003079   0.005318
    24  Br  -0.000100  -0.000001   0.000021  -0.000015  -0.000009  -0.000001
              13         14         15         16         17         18
     1  P    0.004874  -0.011794  -0.005764   0.305343  -0.025941  -0.033769
     2  C   -0.000019  -0.000047   0.001688  -0.029369  -0.003856   0.002173
     3  C    0.000000  -0.000005  -0.000016  -0.001669  -0.000791   0.000049
     4  H   -0.000059  -0.000006   0.003117   0.002261   0.000020  -0.000026
     5  H   -0.000006   0.000003   0.000186  -0.004749   0.002069  -0.000023
     6  H    0.000000   0.000000   0.000003   0.000012  -0.000004   0.000001
     7  H    0.000000  -0.000001   0.000001  -0.000211   0.000020  -0.000009
     8  H    0.000000   0.000000   0.000001   0.001918   0.000343   0.000009
     9  C   -0.028949  -0.032085  -0.038196  -0.030829  -0.004067  -0.002768
    10  C    0.373918   0.384613   0.381631   0.001773   0.000082   0.000011
    11  H   -0.005239  -0.003194   0.004534  -0.001283  -0.000265   0.001840
    12  H   -0.003814   0.003927  -0.003397  -0.002836   0.001535  -0.000192
    13  H    0.552516  -0.026376  -0.030066  -0.000058   0.000001  -0.000003
    14  H   -0.026376   0.489208  -0.028080   0.000015  -0.000002  -0.000005
    15  H   -0.030066  -0.028080   0.555888   0.000014  -0.000005   0.000002
    16  C   -0.000058   0.000015   0.000014   5.247634   0.347665   0.376057
    17  C    0.000001  -0.000002  -0.000005   0.347665   5.062222  -0.032995
    18  H   -0.000003  -0.000005   0.000002   0.376057  -0.032995   0.520790
    19  H    0.000001  -0.000001   0.000001   0.375155  -0.033896  -0.024196
    20  H    0.000000   0.000000   0.000000  -0.029456   0.378641  -0.003812
    21  H    0.000003   0.000000   0.000003  -0.035699   0.382311  -0.003149
    22  H    0.000000   0.000000   0.000000  -0.036386   0.382077   0.004348
    23  Au  -0.000488   0.011307  -0.000593  -0.032827   0.003262  -0.001775
    24  Br   0.000000  -0.000117  -0.000003   0.000021   0.000000  -0.000016
              19         20         21         22         23         24
     1  P   -0.032421   0.004386  -0.007650  -0.007588   0.365411  -0.003895
     2  C   -0.002619   0.000032  -0.000227   0.001781  -0.032478   0.000022
     3  C    0.001586  -0.000003   0.000039   0.000397  -0.000921  -0.000015
     4  H    0.000016   0.000001  -0.000011   0.000010  -0.005238  -0.000010
     5  H   -0.000172  -0.000072  -0.000001   0.002728   0.005384  -0.000001
     6  H   -0.000046   0.000000   0.000000  -0.000012  -0.000472   0.000000
     7  H   -0.000087   0.000000  -0.000001  -0.000011   0.010606  -0.000100
     8  H    0.001897  -0.000022  -0.000006   0.001235  -0.000988  -0.000001
     9  C    0.002032   0.000029   0.002405  -0.000333  -0.033968   0.000021
    10  C   -0.000024   0.000000  -0.000008  -0.000007  -0.000259  -0.000015
    11  H    0.000040  -0.000017   0.000461   0.000034  -0.003079  -0.000009
    12  H   -0.000035  -0.000045   0.002816   0.000064   0.005318  -0.000001
    13  H    0.000001   0.000000   0.000003   0.000000  -0.000488   0.000000
    14  H   -0.000001   0.000000   0.000000   0.000000   0.011307  -0.000117
    15  H    0.000001   0.000000   0.000003   0.000000  -0.000593  -0.000003
    16  C    0.375155  -0.029456  -0.035699  -0.036386  -0.032827   0.000021
    17  C   -0.033896   0.378641   0.382311   0.382077   0.003262   0.000000
    18  H   -0.024196  -0.003812  -0.003149   0.004348  -0.001775  -0.000016
    19  H    0.518074  -0.004138   0.004312  -0.003132  -0.001663  -0.000017
    20  H   -0.004138   0.543862  -0.029267  -0.029442  -0.000306   0.000000
    21  H    0.004312  -0.029267   0.553962  -0.030718   0.000477   0.000000
    22  H   -0.003132  -0.029442  -0.030718   0.555051   0.000173   0.000000
    23  Au  -0.001663  -0.000306   0.000477   0.000173  18.385318   0.289196
    24  Br  -0.000017   0.000000   0.000000   0.000000   0.289196  35.120807
 Mulliken charges:
               1
     1  P    0.429626
     2  C   -0.442330
     3  C   -0.473027
     4  H    0.194788
     5  H    0.170267
     6  H    0.164967
     7  H    0.210900
     8  H    0.156777
     9  C   -0.445104
    10  C   -0.470169
    11  H    0.188330
    12  H    0.171600
    13  H    0.163765
    14  H    0.212640
    15  H    0.159052
    16  C   -0.452497
    17  C   -0.458425
    18  H    0.197460
    19  H    0.199333
    20  H    0.169629
    21  H    0.159949
    22  H    0.159732
    23  Au   0.038602
    24  Br  -0.405867
 Sum of Mulliken charges =   0.00000
 Mulliken charges with hydrogens summed into heavy atoms:
               1
     1  P    0.429626
     2  C   -0.077275
     3  C    0.059617
     9  C   -0.085174
    10  C    0.065288
    16  C   -0.055703
    17  C    0.030885
    23  Au   0.038602
    24  Br  -0.405867
 Electronic spatial extent (au):  <R**2>=           3777.3343
 Charge=              0.0000 electrons
 Dipole moment (field-independent basis, Debye):
    X=             10.1300    Y=              0.4535    Z=              0.1869  Tot=             10.1418
 Quadrupole moment (field-independent basis, Debye-Ang):
   XX=            -98.5242   YY=            -91.3187   ZZ=            -92.0462
   XY=             -0.5806   XZ=             -1.0554   YZ=             -0.1517
 Traceless Quadrupole moment (field-independent basis, Debye-Ang):
   XX=             -4.5612   YY=              2.6444   ZZ=              1.9168
   XY=             -0.5806   XZ=             -1.0554   YZ=             -0.1517
 Octapole moment (field-independent basis, Debye-Ang**2):
  XXX=            -83.0694  YYY=              2.7510  ZZZ=             -8.9979  XYY=            -37.0058
  XXY=             -0.9366  XXZ=             -4.8175  XZZ=            -36.8633  YZZ=             -4.0645
  YYZ=             -3.0154  XYZ=              0.4749
 Hexadecapole moment (field-independent basis, Debye-Ang**3):
 XXXX=          -3153.6255 YYYY=           -868.4516 ZZZZ=           -582.1779 XXXY=              4.0590
 XXXZ=             -1.5999 YYYX=             21.6313 YYYZ=              0.8164 ZZZX=             10.6053
 ZZZY=             -2.5398 XXYY=           -654.6588 XXZZ=           -604.3395 YYZZ=           -243.2127
 XXYZ=              2.5267 YYXZ=              0.9485 ZZXY=             -5.5473
 N-N= 9.612071758107D+02 E-N=-9.714782320815D+03  KE= 3.191366927939D+03
   1 Symmetry operations used in ECPInt.
 ECPInt:  NShTT=    3655 NPrTT=   18009 LenC2=    3436 LenP2D=   11592.
 LDataN:  DoStor=T MaxTD1= 8 Len=  415
 Calling FoFJK, ICntrl=      2127 FMM=F ISym2X=0 I1Cent= 0 IOpClX= 0 NMat=1 NMatS=1 NMatT=0.
 Defaulting to unpruned grid for atomic number  79.
 Defaulting to unpruned grid for atomic number  79.
 Defaulting to unpruned grid for atomic number  79.
 Defaulting to unpruned grid for atomic number  79.
 Defaulting to unpruned grid for atomic number  79.
 Defaulting to unpruned grid for atomic number  79.
 Defaulting to unpruned grid for atomic number  79.
 Defaulting to unpruned grid for atomic number  79.
 ***** Axes restored to original set *****
 -------------------------------------------------------------------
 Center     Atomic                   Forces (Hartrees/Bohr)
 Number     Number              X              Y              Z
 -------------------------------------------------------------------
      1       15          -0.012282697   -0.000944178    0.000202300
      2        6           0.005232739    0.002118409    0.003799111
      3        6          -0.000694312   -0.003144112    0.001723923
      4        1          -0.000090896   -0.000272535    0.000818759
      5        1           0.001444629   -0.000659431    0.001618518
      6        1           0.000101580   -0.000761296    0.000549783
      7        1          -0.000056459   -0.000267494    0.000096617
      8        1           0.000103447   -0.000694156   -0.000325715
      9        6           0.005654119    0.002469312   -0.002691559
     10        6          -0.001530695    0.003152087    0.001370996
     11        1           0.000057290    0.001125505   -0.000429566
     12        1           0.001428606    0.001808637   -0.000439634
     13        1           0.000059810    0.000874373    0.000353783
     14        1          -0.000030226    0.000234512    0.000326464
     15        1          -0.000107191    0.000041154    0.000754373
     16        6           0.000976556   -0.002374709   -0.003436213
     17        6           0.003018671   -0.001265192   -0.001890538
     18        1           0.000012390   -0.000707417   -0.000869271
     19        1          -0.000042382   -0.000368759   -0.000865771
     20        1           0.001341045   -0.000166600   -0.000399340
     21        1           0.000702580    0.000497228   -0.000139923
     22        1           0.000593168   -0.000254223    0.000428365
     23       79          -0.016751900   -0.001353564   -0.000872842
     24       35           0.010860130    0.000912449    0.000317378
 -------------------------------------------------------------------
 Cartesian Forces:  Max     0.016751900 RMS     0.003178156

 GradGradGradGradGradGradGradGradGradGradGradGradGradGradGradGradGradGrad
 Berny optimization.
 FormGI is forming the generalized inverse of G from B-inverse, IUseBI=4.
 Internal  Forces:  Max     0.011001338 RMS     0.002293161
 Search for a local minimum.
 Step number   1 out of a maximum of  131
 All quantities printed in internal units (Hartrees-Bohrs-Radians)
 Mixed Optimization -- RFO/linear search
 Second derivative matrix not updated -- first step.
 ITU=  0
     Eigenvalues ---    0.00230   0.00230   0.00420   0.00420   0.00427
     Eigenvalues ---    0.00763   0.00792   0.00795   0.03374   0.03641
     Eigenvalues ---    0.03645   0.04822   0.04940   0.04944   0.05369
     Eigenvalues ---    0.05470   0.05477   0.05657   0.05660   0.05686
     Eigenvalues ---    0.06387   0.06439   0.06486   0.08653   0.08657
     Eigenvalues ---    0.09126   0.12373   0.12375   0.12690   0.16000
     Eigenvalues ---    0.16000   0.16000   0.16000   0.16000   0.16000
     Eigenvalues ---    0.16000   0.16000   0.16000   0.16588   0.16901
     Eigenvalues ---    0.17066   0.21945   0.21961   0.21965   0.23141
     Eigenvalues ---    0.23864   0.24018   0.24034   0.29780   0.29784
     Eigenvalues ---    0.29829   0.34109   0.34129   0.34130   0.34131
     Eigenvalues ---    0.34188   0.34223   0.34251   0.34263   0.34305
     Eigenvalues ---    0.34309   0.34331   0.34333   0.34334   0.34344
     Eigenvalues ---    0.34387
 RFO step:  Lambda=-3.04272433D-03 EMin= 2.30000000D-03
 Linear search not attempted -- first point.
 Iteration  1 RMS(Cart)=  0.03435400 RMS(Int)=  0.00095359
 Iteration  2 RMS(Cart)=  0.00107361 RMS(Int)=  0.00003648
 Iteration  3 RMS(Cart)=  0.00000118 RMS(Int)=  0.00003648
 Iteration  4 RMS(Cart)=  0.00000000 RMS(Int)=  0.00003648
 Variable       Old X    -DE/DX   Delta X   Delta X   Delta X     New X
                                 (Linear)    (Quad)   (Total)
    R1        3.45472   0.01075   0.00000   0.04420   0.04420   3.49892
    R2        3.45429   0.01100   0.00000   0.04520   0.04520   3.49949
    R3        3.45889   0.01053   0.00000   0.04356   0.04356   3.50245
    R4        4.27535   0.00592   0.00000   0.02525   0.02525   4.30060
    R5        2.88306   0.00513   0.00000   0.01703   0.01703   2.90009
    R6        2.06956   0.00047   0.00000   0.00137   0.00137   2.07093
    R7        2.07146   0.00128   0.00000   0.00372   0.00372   2.07518
    R8        2.06753   0.00074   0.00000   0.00215   0.00215   2.06968
    R9        2.06909   0.00008   0.00000   0.00024   0.00024   2.06933
   R10        2.06813   0.00068   0.00000   0.00198   0.00198   2.07010
   R11        2.88405   0.00523   0.00000   0.01739   0.01739   2.90144
   R12        2.07109   0.00071   0.00000   0.00207   0.00207   2.07316
   R13        2.07113   0.00133   0.00000   0.00387   0.00387   2.07500
   R14        2.06775   0.00077   0.00000   0.00222   0.00222   2.06996
   R15        2.06888   0.00001   0.00000   0.00004   0.00004   2.06892
   R16        2.06771   0.00067   0.00000   0.00194   0.00194   2.06966
   R17        2.88395   0.00571   0.00000   0.01899   0.01899   2.90295
   R18        2.07111   0.00046   0.00000   0.00133   0.00133   2.07244
   R19        2.07013   0.00030   0.00000   0.00086   0.00086   2.07099
   R20        2.06819   0.00082   0.00000   0.00236   0.00236   2.07055
   R21        2.06683   0.00074   0.00000   0.00212   0.00212   2.06895
   R22        2.06771   0.00069   0.00000   0.00199   0.00199   2.06970
   R23        4.68652  -0.01090   0.00000  -0.06276  -0.06276   4.62376
    A1        1.84130  -0.00047   0.00000  -0.00728  -0.00740   1.83390
    A2        1.86552  -0.00058   0.00000  -0.00860  -0.00870   1.85682
    A3        1.96619   0.00068   0.00000   0.01035   0.01038   1.97657
    A4        1.85160  -0.00075   0.00000  -0.01084  -0.01093   1.84067
    A5        1.98143   0.00053   0.00000   0.00781   0.00784   1.98927
    A6        1.94875   0.00041   0.00000   0.00593   0.00598   1.95473
    A7        1.98491   0.00102   0.00000   0.00645   0.00645   1.99136
    A8        1.85248  -0.00010   0.00000   0.00101   0.00104   1.85352
    A9        1.88358   0.00102   0.00000   0.01506   0.01508   1.89866
   A10        1.92727  -0.00068   0.00000  -0.00918  -0.00922   1.91805
   A11        1.94254  -0.00126   0.00000  -0.00850  -0.00862   1.93392
   A12        1.86716   0.00002   0.00000  -0.00467  -0.00478   1.86238
   A13        1.92018   0.00070   0.00000   0.00453   0.00452   1.92470
   A14        1.93922   0.00017   0.00000   0.00093   0.00093   1.94015
   A15        1.95131   0.00030   0.00000   0.00177   0.00177   1.95308
   A16        1.88651  -0.00044   0.00000  -0.00250  -0.00250   1.88401
   A17        1.87833  -0.00050   0.00000  -0.00278  -0.00279   1.87554
   A18        1.88599  -0.00031   0.00000  -0.00232  -0.00232   1.88367
   A19        1.98685   0.00086   0.00000   0.00626   0.00626   1.99310
   A20        1.85082   0.00014   0.00000   0.00306   0.00309   1.85391
   A21        1.88341   0.00099   0.00000   0.01499   0.01499   1.89841
   A22        1.92945  -0.00074   0.00000  -0.00975  -0.00979   1.91967
   A23        1.93509  -0.00105   0.00000  -0.00695  -0.00707   1.92802
   A24        1.87283  -0.00017   0.00000  -0.00755  -0.00766   1.86516
   A25        1.91889   0.00064   0.00000   0.00433   0.00432   1.92321
   A26        1.93883   0.00037   0.00000   0.00220   0.00220   1.94103
   A27        1.95211   0.00023   0.00000   0.00105   0.00105   1.95316
   A28        1.88772  -0.00043   0.00000  -0.00191  -0.00192   1.88581
   A29        1.87779  -0.00045   0.00000  -0.00270  -0.00271   1.87509
   A30        1.88623  -0.00042   0.00000  -0.00333  -0.00333   1.88290
   A31        2.03317   0.00257   0.00000   0.01440   0.01438   2.04755
   A32        1.84228  -0.00032   0.00000   0.00333   0.00334   1.84561
   A33        1.84986  -0.00046   0.00000   0.00193   0.00194   1.85180
   A34        1.93781  -0.00101   0.00000  -0.00608  -0.00616   1.93165
   A35        1.93723  -0.00092   0.00000  -0.00566  -0.00573   1.93150
   A36        1.85192   0.00000   0.00000  -0.00934  -0.00939   1.84253
   A37        1.91146   0.00150   0.00000   0.00990   0.00988   1.92134
   A38        1.95333   0.00031   0.00000   0.00150   0.00149   1.95482
   A39        1.95530   0.00012   0.00000   0.00038   0.00037   1.95567
   A40        1.87676  -0.00088   0.00000  -0.00478  -0.00479   1.87197
   A41        1.87568  -0.00077   0.00000  -0.00403  -0.00404   1.87164
   A42        1.88804  -0.00038   0.00000  -0.00354  -0.00353   1.88451
   A43        3.14785  -0.00031   0.00000  -0.05778  -0.05778   3.09007
   A44        3.14086   0.00032   0.00000   0.05951   0.05951   3.20038
    D1       -3.07847   0.00065   0.00000   0.00681   0.00676  -3.07171
    D2        1.08236   0.00094   0.00000   0.01366   0.01365   1.09600
    D3       -0.91431   0.00049   0.00000   0.01155   0.01156  -0.90275
    D4       -1.11276  -0.00065   0.00000  -0.01234  -0.01235  -1.12511
    D5        3.04807  -0.00036   0.00000  -0.00549  -0.00547   3.04260
    D6        1.05140  -0.00081   0.00000  -0.00760  -0.00756   1.04385
    D7        1.03393  -0.00011   0.00000  -0.00432  -0.00435   1.02959
    D8       -1.08842   0.00018   0.00000   0.00254   0.00253  -1.08589
    D9       -3.08508  -0.00027   0.00000   0.00042   0.00045  -3.08464
   D10       -1.25559  -0.00070   0.00000  -0.00782  -0.00783  -1.26341
   D11        2.90247  -0.00039   0.00000  -0.00157  -0.00155   2.90092
   D12        0.90018  -0.00073   0.00000  -0.00136  -0.00131   0.89887
   D13        3.05214   0.00047   0.00000   0.00960   0.00955   3.06169
   D14        0.92701   0.00078   0.00000   0.01585   0.01583   0.94284
   D15       -1.07528   0.00044   0.00000   0.01607   0.01607  -1.05921
   D16        0.90560   0.00016   0.00000   0.00491   0.00488   0.91048
   D17       -1.21953   0.00047   0.00000   0.01116   0.01116  -1.20837
   D18        3.06136   0.00013   0.00000   0.01137   0.01140   3.07276
   D19       -0.96277   0.00060   0.00000   0.00975   0.00973  -0.95304
   D20       -3.12181   0.00046   0.00000   0.00544   0.00539  -3.11643
   D21        1.20150   0.00078   0.00000   0.01370   0.01369   1.21519
   D22        0.99588  -0.00051   0.00000  -0.00708  -0.00704   0.98884
   D23       -1.16316  -0.00066   0.00000  -0.01139  -0.01138  -1.17455
   D24       -3.12304  -0.00034   0.00000  -0.00313  -0.00308  -3.12611
   D25       -3.12028  -0.00011   0.00000  -0.00104  -0.00104  -3.12131
   D26        1.00387  -0.00025   0.00000  -0.00535  -0.00538   0.99849
   D27       -0.95600   0.00007   0.00000   0.00291   0.00293  -0.95308
   D28       -3.08141   0.00032   0.00000   0.00240   0.00239  -3.07902
   D29       -0.99291   0.00035   0.00000   0.00282   0.00281  -0.99010
   D30        1.11576   0.00029   0.00000   0.00173   0.00172   1.11748
   D31       -1.00119   0.00041   0.00000   0.00150   0.00146  -0.99972
   D32        1.08731   0.00043   0.00000   0.00192   0.00189   1.08919
   D33       -3.08720   0.00037   0.00000   0.00083   0.00079  -3.08641
   D34        1.06987  -0.00081   0.00000  -0.01571  -0.01566   1.05421
   D35       -3.12482  -0.00078   0.00000  -0.01528  -0.01523  -3.14005
   D36       -1.01614  -0.00085   0.00000  -0.01638  -0.01633  -1.03247
   D37       -3.09457   0.00023   0.00000   0.00074   0.00073  -3.09384
   D38       -1.00565   0.00034   0.00000   0.00258   0.00257  -1.00308
   D39        1.10362   0.00022   0.00000   0.00058   0.00057   1.10418
   D40       -1.01360   0.00046   0.00000   0.00192   0.00188  -1.01172
   D41        1.07531   0.00057   0.00000   0.00376   0.00372   1.07904
   D42       -3.09860   0.00046   0.00000   0.00176   0.00172  -3.09688
   D43        1.06119  -0.00090   0.00000  -0.01819  -0.01814   1.04305
   D44       -3.13308  -0.00079   0.00000  -0.01635  -0.01630   3.13381
   D45       -1.02381  -0.00090   0.00000  -0.01835  -0.01830  -1.04211
   D46        3.12450  -0.00002   0.00000   0.00116   0.00116   3.12565
   D47       -1.07912   0.00007   0.00000   0.00265   0.00266  -1.07646
   D48        1.04504  -0.00012   0.00000  -0.00059  -0.00059   1.04445
   D49       -1.04969   0.00064   0.00000   0.01144   0.01140  -1.03828
   D50        1.02988   0.00073   0.00000   0.01293   0.01290   1.04279
   D51       -3.12914   0.00055   0.00000   0.00969   0.00966  -3.11948
   D52        1.00576  -0.00058   0.00000  -0.00767  -0.00764   0.99812
   D53        3.08533  -0.00049   0.00000  -0.00618  -0.00614   3.07919
   D54       -1.07369  -0.00068   0.00000  -0.00941  -0.00938  -1.08308
         Item               Value     Threshold  Converged?
 Maximum Force            0.011001     0.000450     NO 
 RMS     Force            0.002293     0.000300     NO 
 Maximum Displacement     0.184873     0.001800     NO 
 RMS     Displacement     0.034103     0.001200     NO 
 Predicted change in Energy=-1.557400D-03
 GradGradGradGradGradGradGradGradGradGradGradGradGradGradGradGradGradGrad

                          Input orientation:                          
 ---------------------------------------------------------------------
 Center     Atomic      Atomic             Coordinates (Angstroms)
 Number     Number       Type             X           Y           Z
 ---------------------------------------------------------------------
      1         15           0        1.298183    0.117586   -0.048582
      2          6           0        2.029612   -0.522089    1.527506
      3          6           0        1.716435   -1.997649    1.810047
      4          1           0        1.624333    0.105361    2.329399
      5          1           0        3.114035   -0.350014    1.509516
      6          1           0        2.123154   -2.292379    2.783308
      7          1           0        0.636183   -2.176138    1.827743
      8          1           0        2.155345   -2.660183    1.056113
      9          6           0        1.925083    1.853437   -0.200799
     10          6           0        1.286329    2.841938    0.785222
     11          1           0        1.717102    2.165074   -1.231910
     12          1           0        3.016895    1.846296   -0.084223
     13          1           0        1.666876    3.853410    0.606457
     14          1           0        0.197410    2.864608    0.673928
     15          1           0        1.512781    2.585243    1.825569
     16          6           0        2.111529   -0.823787   -1.422421
     17          6           0        3.646831   -0.811792   -1.472732
     18          1           0        1.690515   -0.418892   -2.350607
     19          1           0        1.734853   -1.850522   -1.351897
     20          1           0        4.000373   -1.414607   -2.316624
     21          1           0        4.044967    0.199280   -1.606496
     22          1           0        4.091314   -1.232645   -0.564511
     23         79           0       -0.969748   -0.056406   -0.122014
     24         35           0       -3.413100   -0.157498   -0.040855
 ---------------------------------------------------------------------
                    Distance matrix (angstroms):
                    1          2          3          4          5
     1  P    0.000000
     2  C    1.851547   0.000000
     3  C    2.846691   1.534662   0.000000
     4  H    2.400274   1.095890   2.168147   0.000000
     5  H    2.437957   1.098138   2.181354   1.760337   0.000000
     6  H    3.808951   2.172491   1.095228   2.490786   2.525307
     7  H    3.036447   2.183499   1.095041   2.536403   3.094471
     8  H    3.109835   2.193049   1.095450   3.090544   2.541956
     9  C    1.851851   2.939573   4.349471   3.090003   3.032158
    10  C    2.849116   3.524221   4.965567   3.160314   3.748822
    11  H    2.401660   3.864310   5.155751   4.115088   3.973979
    12  H    2.437966   3.030123   4.478322   3.285674   2.715367
    13  H    3.810695   4.486079   5.973774   4.125314   4.536360
    14  H    3.046286   3.944018   5.219171   3.519963   4.420261
    15  H    3.106095   3.164091   4.587441   2.533003   3.358518
    16  C    1.853415   2.966446   3.461633   3.895745   3.134602
    17  C    2.899671   3.420637   3.988650   4.403166   3.064460
    18  H    2.396049   3.894277   4.450189   4.709742   4.114814
    19  H    2.400575   3.184742   3.165419   4.170088   3.513026
    20  H    3.846226   4.411102   4.752444   5.435199   4.069188
    21  H    3.158891   3.795260   4.682022   4.621640   3.298164
    22  H    3.144978   3.021927   3.444388   4.031249   2.456766
    23  Au   2.275781   3.454554   3.836256   3.572794   4.407424
    24  Br   4.719314   5.675897   5.755356   5.573413   6.711498
                    6          7          8          9         10
     6  H    0.000000
     7  H    1.771355   0.000000
     8  H    1.766216   1.771318   0.000000
     9  C    5.111939   4.691878   4.691014   0.000000
    10  C    5.572597   5.166297   5.576908   1.535375   0.000000
    11  H    6.012965   5.419962   5.358191   1.097070   2.170836
    12  H    5.113721   5.050087   4.727683   1.098041   2.177635
    13  H    6.535870   6.237734   6.547342   2.172148   1.095377
    14  H    5.895125   5.189695   5.873916   2.184598   1.094826
    15  H    5.008095   4.841403   5.340360   2.193559   1.095215
    16  C    4.454779   3.816945   3.085028   2.948669   4.358002
    17  C    4.756849   4.671037   3.469313   3.418432   4.901027
    18  H    5.482172   4.653830   4.104289   3.136905   4.542003
    19  H    4.176834   3.379825   2.575049   3.883365   5.175676
    20  H    5.504883   5.391983   4.041155   4.411763   5.925002
    21  H    5.401122   5.390401   4.340125   3.034160   4.507109
    22  H    4.025492   4.307086   2.900390   3.787974   5.127567
    23  Au   4.796511   3.297549   4.234837   3.468970   3.783300
    24  Br   6.571432   4.895228   6.202770   5.706631   5.635925
                   11         12         13         14         15
    11  H    0.000000
    12  H    1.763027   0.000000
    13  H    2.496517   2.515571   0.000000
    14  H    2.535948   3.092126   1.772459   0.000000
    15  H    3.092971   2.540808   1.765851   1.770458   0.000000
    16  C    3.020788   3.120866   5.117640   4.654330   4.746517
    17  C    3.555782   3.064345   5.477898   5.479286   5.193536
    18  H    2.815860   3.467976   5.195897   4.707286   5.147510
    19  H    4.017428   4.113039   6.031137   5.357252   5.460918
    20  H    4.382242   4.072387   6.460775   6.458917   6.272534
    21  H    3.069790   2.467166   4.889289   5.206534   4.887111
    22  H    4.198428   3.296200   5.754740   5.786511   5.190144
    23  Au   3.658690   4.417582   4.771700   3.244705   4.115136
    24  Br   5.756034   6.735125   6.504810   4.762334   5.938894
                   16         17         18         19         20
    16  C    0.000000
    17  C    1.536173   0.000000
    18  H    1.096687   2.179956   0.000000
    19  H    1.095921   2.179271   1.746124   0.000000
    20  H    2.171727   1.095687   2.515561   2.500660   0.000000
    21  H    2.195161   1.094839   2.545443   3.098893   1.763775
    22  H    2.196069   1.095239   3.100995   2.560207   1.763882
    23  Au   3.431356   4.869071   3.489272   3.470782   5.600279
    24  Br   5.733602   7.233326   5.608045   5.575534   7.856146
                   21         22         23         24
    21  H    0.000000
    22  H    1.771523   0.000000
    23  Au   5.236070   5.214757   0.000000
    24  Br   7.628977   7.599105   2.446789   0.000000
 Stoichiometry    C6H15AuBrP
 Framework group  C1[X(C6H15AuBrP)]
 Deg. of freedom    66
 Full point group                 C1      NOp   1
 Largest Abelian subgroup         C1      NOp   1
 Largest concise Abelian subgroup C1      NOp   1
                         Standard orientation:                         
 ---------------------------------------------------------------------
 Center     Atomic      Atomic             Coordinates (Angstroms)
 Number     Number       Type             X           Y           Z
 ---------------------------------------------------------------------
      1         15           0        1.671621    0.122510   -0.028275
      2          6           0        2.392111   -0.540162    1.543343
      3          6           0        2.063843   -2.015404    1.809968
      4          1           0        1.990516    0.083030    2.350393
      5          1           0        3.478195   -0.378435    1.530243
      6          1           0        2.464779   -2.323910    2.781357
      7          1           0        0.981868   -2.183583    1.822721
      8          1           0        2.498586   -2.674488    1.050614
      9          6           0        2.315720    1.853656   -0.161030
     10          6           0        1.683600    2.838261    0.833130
     11          1           0        2.113849    2.177727   -1.189519
     12          1           0        3.407058    1.834750   -0.041371
     13          1           0        2.074438    3.847756    0.665755
     14          1           0        0.595289    2.872613    0.718919
     15          1           0        1.904444    2.568854    1.871467
     16          6           0        2.479941   -0.812734   -1.409248
     17          6           0        4.015431   -0.815114   -1.454988
     18          1           0        2.065640   -0.394392   -2.334487
     19          1           0        2.093150   -1.836431   -1.350252
     20          1           0        4.365655   -1.412746   -2.303934
     21          1           0        4.423718    0.193355   -1.577318
     22          1           0        4.453104   -1.249437   -0.549807
     23         79           0       -0.597656   -0.028734   -0.110040
     24         35           0       -3.042103   -0.106952   -0.036988
 ---------------------------------------------------------------------
 Rotational constants (GHZ):      1.1484861      0.3072523      0.2895392
 Basis read from rwf:  (5D, 7F)
 Pseudo-potential data read from rwf file.
 There are   217 symmetry adapted cartesian basis functions of A   symmetry.
 There are   202 symmetry adapted basis functions of A   symmetry.
   202 basis functions,   411 primitive gaussians,   217 cartesian basis functions
    60 alpha electrons       60 beta electrons
       nuclear repulsion energy       957.5576606541 Hartrees.
 NAtoms=   24 NActive=   24 NUniq=   24 SFac= 1.00D+00 NAtFMM=   60 NAOKFM=F Big=F
 Integral buffers will be    131072 words long.
 Raffenetti 2 integral format.
 Two-electron integral symmetry is turned on.
 One-electron integrals computed using PRISM.
   1 Symmetry operations used in ECPInt.
 ECPInt:  NShTT=    3655 NPrTT=   18009 LenC2=    3437 LenP2D=   11563.
 LDataN:  DoStor=T MaxTD1= 7 Len=  274
 NBasis=   202 RedAO= T EigKep=  2.52D-03  NBF=   202
 NBsUse=   202 1.00D-06 EigRej= -1.00D+00 NBFU=   202
 Defaulting to unpruned grid for atomic number  79.
 Initial guess from the checkpoint file:  "/home/scr/helius/Gau-21445.chk"
 B after Tr=     0.000000    0.000000    0.000000
         Rot=    0.999965   -0.007337    0.002634   -0.003173 Ang=  -0.96 deg.
 ExpMin= 2.79D-02 ExpMax= 5.74D+05 ExpMxC= 5.74D+03 IAcc=3 IRadAn=         5 AccDes= 0.00D+00
 Harris functional with IExCor=  402 and IRadAn=       5 diagonalized for initial guess.
 HarFok:  IExCor=  402 AccDes= 0.00D+00 IRadAn=         5 IDoV= 1 UseB2=F ITyADJ=14
 ICtDFT=  3500011 ScaDFX=  1.000000  1.000000  1.000000  1.000000
 Defaulting to unpruned grid for atomic number  79.
 Defaulting to unpruned grid for atomic number  79.
 Defaulting to unpruned grid for atomic number  79.
 Defaulting to unpruned grid for atomic number  79.
 Defaulting to unpruned grid for atomic number  79.
 Defaulting to unpruned grid for atomic number  79.
 Defaulting to unpruned grid for atomic number  79.
 Defaulting to unpruned grid for atomic number  79.
 FoFCou: FMM=F IPFlag=           0 FMFlag=      100000 FMFlg1=           0
         NFxFlg=           0 DoJE=T BraDBF=F KetDBF=T FulRan=T
         wScrn=  0.000000 ICntrl=     500 IOpCl=  0 I1Cent=   200000004 NGrid=           0
         NMat0=    1 NMatS0=      1 NMatT0=    0 NMatD0=    1 NMtDS0=    0 NMtDT0=    0
 Petite list used in FoFCou.
 Keep R1 ints in memory in canonical form, NReq=215539953.
 Requested convergence on RMS density matrix=1.00D-08 within 128 cycles.
 Requested convergence on MAX density matrix=1.00D-06.
 Requested convergence on             energy=1.00D-06.
 No special actions if energy rises.
 Defaulting to unpruned grid for atomic number  79.
 Defaulting to unpruned grid for atomic number  79.
 Defaulting to unpruned grid for atomic number  79.
 Defaulting to unpruned grid for atomic number  79.
 Defaulting to unpruned grid for atomic number  79.
 Defaulting to unpruned grid for atomic number  79.
 Defaulting to unpruned grid for atomic number  79.
 Defaulting to unpruned grid for atomic number  79.
 SCF Done:  E(RB3LYP) =  -3286.01876310     A.U. after   10 cycles
            NFock= 10  Conv=0.75D-08     -V/T= 2.0297
   1 Symmetry operations used in ECPInt.
 ECPInt:  NShTT=    3655 NPrTT=   18009 LenC2=    3437 LenP2D=   11563.
 LDataN:  DoStor=T MaxTD1= 8 Len=  415
 Calling FoFJK, ICntrl=      2127 FMM=F ISym2X=0 I1Cent= 0 IOpClX= 0 NMat=1 NMatS=1 NMatT=0.
 Defaulting to unpruned grid for atomic number  79.
 Defaulting to unpruned grid for atomic number  79.
 Defaulting to unpruned grid for atomic number  79.
 Defaulting to unpruned grid for atomic number  79.
 Defaulting to unpruned grid for atomic number  79.
 Defaulting to unpruned grid for atomic number  79.
 Defaulting to unpruned grid for atomic number  79.
 Defaulting to unpruned grid for atomic number  79.
 ***** Axes restored to original set *****
 -------------------------------------------------------------------
 Center     Atomic                   Forces (Hartrees/Bohr)
 Number     Number              X              Y              Z
 -------------------------------------------------------------------
      1       15          -0.001266755   -0.001464929   -0.001893166
      2        6           0.001963753   -0.000035438    0.001735333
      3        6          -0.000550417   -0.000361720   -0.000502460
      4        1          -0.000393057    0.000019439   -0.000031789
      5        1          -0.000352179   -0.000032899   -0.000473742
      6        1           0.000117268    0.000389143    0.000023153
      7        1          -0.000050234    0.000104715   -0.000008967
      8        1           0.000001424    0.000126159   -0.000178542
      9        6           0.002064238    0.001635061   -0.000251608
     10        6          -0.000542673   -0.000185856    0.000395078
     11        1          -0.000436542   -0.000224780    0.000033416
     12        1          -0.000335335   -0.000385265    0.000071909
     13        1           0.000224064   -0.000193234   -0.000272043
     14        1           0.000013880   -0.000075263   -0.000059486
     15        1           0.000030023   -0.000217113    0.000031271
     16        6           0.002781702   -0.000602088   -0.001267877
     17        6          -0.000090276    0.000056734    0.000140297
     18        1          -0.000033199    0.000281549    0.000107654
     19        1          -0.000051908   -0.000033272    0.000383190
     20        1          -0.000432548   -0.000053598   -0.000088774
     21        1          -0.000132325    0.000180478    0.000112105
     22        1          -0.000166754    0.000000545    0.000203869
     23       79          -0.007513586    0.001556300    0.003182983
     24       35           0.005151437   -0.000484669   -0.001391804
 -------------------------------------------------------------------
 Cartesian Forces:  Max     0.007513586 RMS     0.001353298

 GradGradGradGradGradGradGradGradGradGradGradGradGradGradGradGradGradGrad
 Berny optimization.
 Using GEDIIS/GDIIS optimizer.
 FormGI is forming the generalized inverse of G from B-inverse, IUseBI=4.
 Internal  Forces:  Max     0.005168939 RMS     0.000836427
 Search for a local minimum.
 Step number   2 out of a maximum of  131
 All quantities printed in internal units (Hartrees-Bohrs-Radians)
 Mixed Optimization -- En-DIIS/RFO-DIIS
 Update second derivatives using D2CorX and points    1    2
 DE= -1.49D-03 DEPred=-1.56D-03 R= 9.57D-01
 TightC=F SS=  1.41D+00  RLast= 1.57D-01 DXNew= 5.0454D-01 4.7244D-01
 Trust test= 9.57D-01 RLast= 1.57D-01 DXMaxT set to 4.72D-01
 ITU=  1  0
 Use linear search instead of GDIIS.
     Eigenvalues ---    0.00230   0.00300   0.00420   0.00421   0.00428
     Eigenvalues ---    0.00763   0.00792   0.00796   0.03287   0.03592
     Eigenvalues ---    0.03611   0.04844   0.04956   0.05064   0.05357
     Eigenvalues ---    0.05455   0.05461   0.05619   0.05624   0.05624
     Eigenvalues ---    0.06104   0.06441   0.06449   0.08710   0.08842
     Eigenvalues ---    0.09296   0.12432   0.12461   0.12795   0.13166
     Eigenvalues ---    0.16000   0.16000   0.16000   0.16000   0.16000
     Eigenvalues ---    0.16000   0.16000   0.16002   0.16191   0.16465
     Eigenvalues ---    0.16818   0.21783   0.21950   0.22017   0.22511
     Eigenvalues ---    0.23845   0.24024   0.24535   0.29771   0.29815
     Eigenvalues ---    0.30701   0.34118   0.34129   0.34131   0.34187
     Eigenvalues ---    0.34211   0.34221   0.34251   0.34263   0.34307
     Eigenvalues ---    0.34313   0.34330   0.34333   0.34338   0.34362
     Eigenvalues ---    0.34384
 RFO step:  Lambda=-5.85146514D-03 EMin= 2.29744988D-03
 Quartic linear search produced a step of -0.01779.
 Maximum step size (   0.472) exceeded in Quadratic search.
    -- Step size scaled by   0.603
 Iteration  1 RMS(Cart)=  0.09389671 RMS(Int)=  0.02071288
 Iteration  2 RMS(Cart)=  0.06880124 RMS(Int)=  0.00618608
 Iteration  3 RMS(Cart)=  0.00691835 RMS(Int)=  0.00005496
 Iteration  4 RMS(Cart)=  0.00005160 RMS(Int)=  0.00004959
 Iteration  5 RMS(Cart)=  0.00000001 RMS(Int)=  0.00004959
 Variable       Old X    -DE/DX   Delta X   Delta X   Delta X     New X
                                 (Linear)    (Quad)   (Total)
    R1        3.49892   0.00075  -0.00079   0.05433   0.05355   3.55246
    R2        3.49949   0.00066  -0.00080   0.05529   0.05448   3.55397
    R3        3.50245   0.00121  -0.00077   0.05476   0.05398   3.55643
    R4        4.30060   0.00223  -0.00045   0.03577   0.03532   4.33592
    R5        2.90009  -0.00031  -0.00030   0.01968   0.01938   2.91947
    R6        2.07093   0.00014  -0.00002   0.00188   0.00186   2.07279
    R7        2.07518  -0.00034  -0.00007   0.00384   0.00378   2.07896
[...]
 .00042252,-0.00007409,0.00008583,0.00544663,-0.00390414,-0.00678494,-0
 .00197048,-0.00194987,0.00082309,0.00015448,0.00049618,0.00003785,0.00
 009294,0.00074988,-0.00048744,0.00067153,-0.00073504,-0.00056041,0.000
 36481,-0.00024673,0.00003602,-0.00002234,0.00009900,0.00000378,0.45046
 111,0.01547328,-0.07219574,-0.02735954,-0.00485506,0.00766028,0.007170
 73,-0.00055244,0.00165135,-0.00065997,0.00197436,-0.00141154,0.0031356
 4,0.00028279,-0.00017834,-0.00046476,0.00010254,-0.00017570,-0.0001700
 5,-0.00005799,-0.00007039,0.00004453,0.00029216,-0.00041306,-0.0000784
 6,0.01140433,-0.00882067,-0.01779431,-0.00416399,-0.00436119,0.0028896
 9,0.00078228,0.00167662,-0.00013541,-0.00010102,0.00104363,-0.00017989
 ,0.00099655,-0.00112735,-0.00158443,0.00021379,0.00007831,0.00013991,-
 0.00010172,-0.00003723,-0.00035950,0.03106344,0.51638469,0.02289572,-0
 .02866132,-0.09260633,0.00948336,-0.01122462,-0.01204112,-0.00019294,-
 0.00044338,0.00076559,-0.00226102,0.00219536,-0.00374853,0.00027245,-0
 .00050229,0.00082905,0.00001719,-0.00012308,0.00005369,0.00016112,0.00
 018227,-0.00010976,0.00023292,0.00002624,-0.00032681,-0.00215755,0.001
 34788,0.00409243,0.00090053,0.00193567,-0.00056227,-0.00022027,-0.0000
 6973,0.00034623,0.00034315,0.00005023,-0.00024562,0.00002145,0.0006390
 1,0.00049171,0.00021794,-0.00021703,-0.00008310,0.00002200,0.00001045,
 0.00012233,0.04992978,-0.07112259,0.45862319,-0.01203531,0.00554589,0.
 00845133,0.00162831,-0.00055478,-0.00041258,-0.00036225,-0.00007350,-0
 .00025274,-0.00034991,0.00030267,-0.00062251,-0.00034804,-0.00031899,0
 .00018397,0.00004595,0.00006153,-0.00007357,-0.00002265,-0.00001429,0.
 00006830,0.00020479,0.00005270,0.00009903,0.00169195,-0.00027157,-0.00
 068926,-0.00063381,-0.00058881,0.00025595,0.00007811,0.00011722,-0.000
 04614,-0.00056371,0.00025539,-0.00022834,0.00012503,-0.00015858,-0.000
 16107,-0.00002623,0.00011088,0.00009605,0.00000798,0.00003712,-0.00000
 712,-0.18928363,-0.00690553,-0.00584103,0.46774722,0.01467650,-0.00041
 041,-0.00197483,-0.00107730,-0.00045239,-0.00009441,0.00016039,-0.0004
 0059,0.00006057,0.00031121,0.00006026,0.00020091,0.00041796,0.00042754
 ,0.00005751,-0.00004971,0.00005891,0.00006245,0.00004682,0.00003283,0.
 00002063,-0.00017910,0.00013867,0.00004280,0.00039164,0.00052397,0.000
 68207,-0.00011180,-0.00019023,-0.00005651,0.00017704,-0.00018749,0.000
 08688,-0.00018162,-0.00037413,-0.00064853,-0.00007252,-0.00005293,0.00
 000586,-0.00022877,0.00011861,0.00007875,0.00000584,0.00007697,0.00008
 482,0.00102949,-0.07965657,0.00425622,0.00459344,0.57837422,0.02146189
 ,-0.00165273,-0.00271642,-0.00000919,0.00048345,0.00076922,-0.00008001
 ,-0.00027007,-0.00037834,-0.00012682,0.00005933,0.00037839,-0.00007651
 ,-0.00034716,-0.00046228,-0.00002894,0.00010262,-0.00000142,-0.0001371
 8,-0.00002446,0.00019247,0.00019407,0.00041837,0.00005301,-0.00104889,
 0.00037181,-0.00026285,0.00044368,0.00009052,0.00020421,0.00008282,-0.
 00010527,0.00011308,0.00051352,-0.00021925,0.00015696,-0.00014305,-0.0
 0003254,0.00001288,-0.00011786,0.00000799,-0.00009688,-0.00000140,0.00
 002577,-0.00001660,0.00581040,0.00478669,-0.07607275,0.00955050,-0.002
 99271,0.57457413,0.00408657,-0.00566122,0.00868618,-0.00151621,0.00213
 369,0.00185904,0.00013913,0.00031883,-0.00011417,0.00062185,-0.0003216
 0,0.00092627,0.00008526,0.00015763,0.00013821,-0.00001222,-0.00001695,
 0.00004043,-0.00001863,-0.00003829,-0.00002643,-0.00014525,0.00000464,
 -0.00011844,-0.00016104,-0.00030665,-0.00057974,-0.00002853,-0.0001702
 2,0.00011102,0.00018663,0.00004655,-0.00002910,-0.00002156,-0.00000667
 ,0.00000966,-0.00000361,-0.00001210,-0.00005093,-0.00002547,0.00002619
 ,0.00000709,-0.00002108,-0.00000511,-0.00000580,-0.08135948,0.03608775
 ,-0.08143288,-0.01395395,0.01305032,-0.02908547,0.09299720,-0.00455426
 ,0.00446158,-0.01420248,0.00205481,-0.00272831,-0.00240453,0.00020015,
 -0.00048267,0.00007719,-0.00061894,0.00055806,-0.00119441,-0.00002002,
 -0.00008582,0.00021728,-0.00002167,0.00019225,0.00011387,0.00000899,0.
 00007522,-0.00000209,-0.00012387,0.00034502,0.00007450,-0.00053242,0.0
 0068056,0.00051109,0.00026592,0.00014591,0.00002194,0.00008056,-0.0004
 6264,0.00018220,0.00002830,-0.00002169,-0.00005920,-0.00003313,0.00004
 943,0.00008502,0.00000180,0.00000351,-0.00000708,-0.00002753,0.0000681
 7,0.00009676,0.03386377,-0.08152674,0.08303097,-0.00050193,0.00052660,
 -0.00140886,-0.04111840,0.08869750,-0.00669398,0.00790818,-0.01839279,
 0.00324226,-0.00316102,-0.00241999,-0.00000372,-0.00041251,0.00035118,
 -0.00085163,0.00074087,-0.00127292,0.00002397,-0.00012526,0.00047087,-
 0.00001128,0.00005174,-0.00000385,0.00002562,0.00006907,-0.00004792,0.
 00002017,0.00001535,0.00012433,-0.00030893,0.00055036,0.00086875,0.000
 27087,-0.00002963,0.00011762,-0.00009569,-0.00085170,0.00028829,0.0000
 7379,0.00003701,-0.00000924,-0.00000553,0.00001591,0.00006701,0.000026
 36,-0.00000936,-0.00002180,-0.00002890,0.00013686,0.00015829,-0.086694
 43,0.08973110,-0.23996027,0.00127315,-0.00143219,0.00294174,0.08943955
 ,-0.09322759,0.25476291,0.00371624,0.01043062,-0.00273367,-0.00020831,
 -0.00058918,-0.00040052,0.00035189,-0.00042424,-0.00004690,-0.00006747
 ,0.00011199,-0.00011405,0.00000506,0.00002857,-0.00000457,-0.00010889,
 0.00004005,0.00010276,-0.00010221,0.00003541,0.00005330,0.00000006,0.0
 0027676,0.00001131,-0.00150563,0.00102617,0.00291401,0.00089153,0.0008
 4888,-0.00033128,-0.00018161,-0.00043023,0.00005338,0.00014513,0.00012
 036,0.00018673,-0.00020675,0.00028019,0.00027920,-0.00003670,-0.000021
 17,-0.00004123,-0.00000493,-0.00000231,0.00005881,-0.07509101,-0.08181
 802,0.00550918,-0.01296728,-0.03245056,0.00256730,0.00325317,0.0110778
 1,-0.00003177,0.08633132,-0.00413528,-0.01295392,0.00130891,0.00005170
 ,0.00016486,-0.00000212,0.00026565,-0.00037270,-0.00000110,0.00001893,
 0.00004960,0.00000439,0.00006887,-0.00001566,0.00003970,-0.00005855,0.
 00023208,0.00016256,0.00000123,0.00004225,-0.00000846,-0.00016410,0.00
 046104,0.00033482,0.00238094,-0.00060967,-0.00246472,-0.00078840,-0.00
 066455,0.00049647,0.00007541,0.00044227,-0.00000281,-0.00001344,0.0003
 2694,0.00000218,0.00014816,-0.00022129,-0.00027484,0.00000125,-0.00001
 041,0.00002002,0.00000261,-0.00001671,-0.00008267,-0.08576651,-0.28453
 768,0.01912454,0.00069372,0.00251054,-0.00026013,-0.00345637,-0.011673
 51,0.00060481,0.09053927,0.30364601,-0.00603891,-0.02109552,0.00054924
 ,-0.00045925,0.00087647,0.00071534,0.00014118,-0.00016780,-0.00056695,
 0.00024694,0.00005848,0.00025923,0.00007584,-0.00002920,-0.00005688,-0
 .00003039,0.00027549,0.00019450,0.00002827,0.00004301,-0.00000985,-0.0
 0032155,0.00055938,-0.00075737,0.00304845,-0.00132037,-0.00449208,-0.0
 0105194,-0.00150315,0.00089569,0.00017128,0.00011784,0.00016202,-0.000
 07361,0.00030628,-0.00001076,0.00029004,-0.00041413,-0.00046185,0.0000
 3447,0.00001761,0.00001516,-0.00003895,0.00006224,-0.00005026,0.001912
 19,0.01198053,-0.04465211,0.00041464,0.00050893,-0.00017431,0.00932564
 ,0.02845494,-0.00108473,-0.00780481,-0.01913194,0.04840112,-0.00508604
 ,-0.00091729,-0.00114861,-0.00022616,0.00003031,-0.00035240,0.00008249
 ,0.00007051,0.00009387,0.00020160,-0.00004328,0.00001885,0.00032744,0.
 00001346,0.00020206,0.00000596,-0.00005698,0.00001270,0.00003086,0.000
 05515,-0.00005063,-0.00001709,-0.00006512,-0.00002593,-0.00022889,-0.0
 0039565,-0.00000977,0.00017583,0.00022200,-0.00003310,-0.00000936,0.00
 002330,-0.00000050,0.00027863,0.00020599,0.00006900,0.00002027,0.00006
 592,0.00004775,0.00008697,-0.00009529,-0.00004063,-0.00001348,-0.00002
 762,-0.00000394,-0.01526842,0.01834256,0.02630800,-0.07128431,0.045108
 14,0.06391861,0.00148143,0.00027751,-0.00028801,0.00157356,-0.00030978
 ,0.00012985,0.08059230,-0.00082148,0.00026983,0.00079302,0.00007182,0.
 00013101,0.00006551,-0.00002022,0.00002509,-0.00004991,-0.00006200,-0.
 00000392,-0.00002139,-0.00007414,-0.00012877,-0.00005153,0.00000215,0.
 00001236,-0.00001005,-0.00001203,0.00000281,0.00000662,0.00002210,0.00
 003063,0.00001108,-0.00026844,-0.00001963,-0.00021175,0.00025616,0.000
 14331,0.00006496,-0.00001778,0.00003914,0.00000829,0.00030282,0.000244
 48,0.00022193,-0.00001879,0.00000939,0.00001147,0.00002782,-0.00008739
 ,-0.00008238,-0.00000193,-0.00001652,-0.00002710,-0.00015234,0.0007239
 4,0.00132405,0.04483628,-0.12939997,-0.11353099,0.00027741,-0.00011708
 ,0.00000190,0.00015362,0.00059688,0.00044784,-0.04889600,0.13568885,-0
 .00094643,0.00073360,0.00080423,-0.00022663,-0.00011438,0.00003012,0.0
 0008363,-0.00008742,0.00002933,0.00019188,-0.00000479,0.00001019,0.000
 25944,0.00013562,0.00029366,-0.00000711,0.00000577,-0.00001726,0.00002
 638,0.00004574,-0.00001557,-0.00003193,-0.00007010,-0.00001011,0.00001
 253,0.00004008,0.00011344,-0.00001827,-0.00002414,0.00000399,0.0000325
 7,-0.00003350,-0.00000663,-0.00001564,0.00006196,-0.00006678,0.0000040
 6,-0.00001199,-0.00000392,0.00000321,0.00000803,0.00000338,-0.00000411
 ,0.00000997,0.00000748,0.00032653,0.00066758,0.00072126,0.06351497,-0.
 11345757,-0.21019593,0.00023592,0.00018914,0.00068627,0.00029595,0.000
 25835,0.00005265,-0.06960483,0.12461845,0.22446001,0.00010146,-0.00219
 279,-0.00068258,-0.00005883,0.00031047,0.00018059,0.00006033,-0.000036
 06,-0.00006219,0.00006963,-0.00003720,0.00009598,0.00003799,-0.0000414
 8,0.00004022,0.00000061,0.00005238,0.00003374,0.00001655,-0.00000461,-
 0.00005232,-0.00009799,0.00003392,-0.00003470,-0.00003249,-0.00011200,
 0.00000121,0.00031321,0.00033103,0.00003543,-0.00013549,0.00016988,-0.
 00008873,0.00041524,0.00080789,0.00051429,-0.00003007,0.00002018,0.000
 04050,0.00004719,-0.00014660,-0.00011276,0.00001951,-0.00005373,-0.000
 07972,-0.01237917,-0.03181957,0.00454419,-0.08142294,-0.08592611,0.010
 12773,0.00130161,0.00019089,-0.00035501,-0.00687336,0.00076370,0.00018
 915,0.00364248,0.00964325,-0.00237931,0.09014662,-0.00013526,-0.000413
 33,-0.00052016,-0.00009909,0.00015991,0.00010905,0.00006884,-0.0000659
 3,-0.00011480,-0.00001160,-0.00001101,0.00004265,0.00001295,-0.0000965
 2,0.00001025,-0.00000579,0.00002083,0.00001968,-0.00002005,0.00004158,
 0.00002006,0.00002689,0.00009007,0.00000351,-0.00034935,-0.00030682,-0
 .00034240,0.00035251,0.00020920,-0.00000411,-0.00004718,-0.00001873,0.
 00006827,0.00099190,-0.00042147,-0.00021974,-0.00003448,0.00005442,0.0
 0004075,0.00004965,-0.00008056,-0.00007276,-0.00001010,-0.00001398,-0.
 00000648,0.00026717,0.00350951,-0.00029971,-0.08695132,-0.27925222,0.0
 2858106,-0.00054504,0.00036507,-0.00017578,0.00079810,0.00148979,-0.00
 021433,-0.00576678,-0.01646157,0.00284487,0.09498459,0.30203189,0.0005
 1763,0.00126493,0.00020204,0.00006593,-0.00010292,-0.00005696,-0.00001
 571,0.00011891,0.00017036,0.00000905,-0.00002314,-0.00002883,-0.000065
 98,0.00019761,-0.00004366,0.00000488,-0.00004454,-0.00000439,0.0000223
 8,-0.00007301,-0.00005909,-0.00008825,-0.00017308,0.00000330,0.0004394
 2,0.00001057,0.00035824,-0.00023400,-0.00005096,-0.00020365,-0.0001161
 0,0.00002527,-0.00006007,-0.00004519,-0.00081923,-0.00026181,0.0000096
 7,0.00002009,0.00001613,-0.00004620,0.00007901,0.00007991,0.00002611,-
 0.00000728,0.00000407,0.00063710,0.00048636,-0.00108551,0.01009895,0.0
 2836998,-0.05411476,-0.00000738,-0.00058259,0.00014812,0.00004292,-0.0
 0003573,0.00090313,-0.01021551,-0.02485586,0.00412110,-0.01204332,-0.0
 3027483,0.05214278,0.00015504,0.00012056,-0.00236551,-0.00012646,0.000
 14290,0.00010251,0.00007676,0.00016395,0.00040162,0.00034040,-0.000055
 67,0.00002854,0.00043980,0.00027179,0.00089399,0.00002744,-0.00007431,
 -0.00006827,0.00008000,-0.00001474,-0.00018091,-0.00018471,-0.00045892
 ,0.00003239,-0.00006882,0.00008891,0.00034630,0.00007308,0.00007219,-0
 .00003656,-0.00002359,-0.00017488,0.00000155,0.00003724,0.00008951,-0.
 00001606,-0.00001098,0.00001824,0.00003241,0.00000622,-0.00001499,-0.0
 0000749,-0.00000189,0.00002161,0.00003089,-0.01328511,0.01415067,-0.02
 813149,-0.08835693,0.03961014,-0.08482257,-0.00682091,-0.00038006,0.00
 096636,0.00122042,-0.00033899,-0.00002804,0.00409933,-0.00521769,0.008
 25476,0.00484542,-0.00350936,0.01103496,0.09745019,0.00057726,-0.00010
 921,0.00114349,0.00050775,0.00037255,0.00025228,-0.00018270,0.00031247
 ,0.00009958,-0.00024947,-0.00011336,0.00003872,-0.00032923,-0.00015063
 ,-0.00060245,0.00001605,-0.00002120,-0.00000684,-0.00000410,-0.0001373
 2,-0.00004340,-0.00002716,-0.00012598,-0.00005589,0.00012421,-0.000101
 89,-0.00023839,-0.00003179,0.00003633,-0.00000748,-0.00016356,0.000152
 48,-0.00004797,-0.00001258,-0.00016531,0.00019161,0.00000435,0.0000026
 6,-0.00000238,0.00000424,-0.00000028,-0.00000350,0.00002264,-0.0000266
 0,-0.00004760,0.00020152,-0.00009600,-0.00189172,0.03978822,-0.0919884
 1,0.08732826,-0.00043937,0.00101771,-0.00017961,0.00017449,0.00036349,
 -0.00056832,-0.00834665,0.00824063,-0.01579091,0.01279764,-0.01093143,
 0.02658374,-0.04441362,0.09347754,0.00022909,-0.00045844,-0.00019541,-
 0.00003974,-0.00007149,-0.00052513,0.00005403,0.00005210,0.00007205,0.
 00014745,-0.00009796,0.00017161,0.00076208,-0.00018465,-0.00068125,0.0
 0001144,-0.00004416,-0.00001502,0.00000506,-0.00001220,0.00000787,-0.0
 0006126,-0.00005241,0.00002172,-0.00008214,0.00003632,0.00013943,0.000
 01198,0.00000591,-0.00004220,0.00003538,-0.00003559,0.00000664,-0.0000
 3642,0.00005233,-0.00003390,-0.00000203,0.00001970,0.00000932,0.000004
 91,0.00000089,0.00000698,-0.00000598,0.00000141,0.00002138,0.00055992,
 -0.00193387,0.00347928,-0.08559923,0.08752153,-0.23333728,0.00099096,-
 0.00036937,0.00123327,-0.00053808,-0.00016249,0.00010267,-0.00976650,0
 .01126846,-0.02106798,0.00009501,0.00039938,-0.00221861,0.09328491,-0.
 09600777,0.25274737,-0.10634380,-0.00567198,-0.00204688,-0.00172689,-0
 .00011210,-0.00033446,-0.00050723,0.00025979,-0.00015627,-0.00018911,-
 0.00006992,-0.00011545,0.00008130,-0.00010192,0.00013498,0.00006420,-0
 .00006922,0.00006862,-0.00013975,0.00028515,-0.00024254,0.00010686,-0.
 00000101,0.00000998,-0.00078011,-0.00049168,0.00002997,-0.00037744,-0.
 00042448,-0.00020966,-0.00015539,-0.00004316,0.00008351,0.00015000,0.0
 0043855,-0.00003506,0.00009337,0.00009901,0.00001200,-0.00002430,-0.00
 039797,-0.00011217,0.00008178,-0.00000383,0.00000973,-0.00275705,-0.00
 005318,0.00026102,-0.00021120,0.00002509,0.00005508,-0.00010398,-0.000
 04168,0.00006114,-0.00018102,0.00004470,-0.00006109,0.00002274,-0.0000
 7045,-0.00008501,0.00001019,0.00002009,0.00005048,0.00002018,0.0000330
 2,0.00004712,0.22266405,-0.00567696,-0.03140892,0.00009893,0.00384909,
 0.00203179,-0.00042256,0.00048377,0.00029795,-0.00029026,0.00010860,-0
 .00003032,0.00051992,0.00046375,-0.00014751,0.00131143,0.00023308,0.00
 018130,0.00012175,0.00002807,0.00001231,-0.00020085,-0.00015257,0.0000
 9252,-0.00007556,-0.01109294,0.00209311,-0.00085705,-0.00102566,0.0002
 3524,0.00020361,0.00020037,0.00052983,-0.00007963,-0.00113675,-0.00323
 280,0.00020547,-0.00021984,-0.00006904,0.00006657,0.00009283,-0.000052
 53,0.00002973,0.00011308,-0.00000392,-0.00017996,0.00682114,0.00233793
 ,0.00065936,-0.00009408,-0.00069792,-0.00185120,0.00000274,-0.00006773
 ,-0.00030016,-0.00022991,0.00085164,0.00089154,0.00068723,0.00008923,-
 0.00004370,0.00029159,0.00011646,-0.00012376,-0.00011399,-0.00000137,0
 .00010421,0.01403549,0.03827850,-0.00211868,0.00014403,-0.03104231,-0.
 01060816,-0.00109717,0.00248414,-0.00062834,-0.00042954,-0.00003383,0.
 00043803,-0.00017423,0.00113356,-0.00139049,0.00153139,-0.00263193,-0.
 00005617,0.00006880,-0.00002161,0.00008874,0.00001080,-0.00005323,-0.0
 0004366,0.00027094,0.00005443,0.00161944,-0.00026222,0.00175293,-0.000
 21168,0.00010153,-0.00008959,-0.00030997,-0.00094399,0.00028893,0.0002
 1698,0.00051934,0.00046546,-0.00018764,-0.00002873,0.00016658,-0.00007
 832,0.00006111,-0.00007479,0.00012748,0.00018094,0.00021162,0.00979162
 ,0.00105164,0.00245762,-0.00009968,-0.00174565,-0.00201127,-0.00034651
 ,0.00052930,0.00112695,-0.00002575,0.00006402,0.00012958,0.00095254,-0
 .00001122,0.00004645,-0.00001660,0.00013098,-0.00000424,0.00026436,-0.
 00016249,0.00011001,0.00520452,0.00038970,0.03643713,-0.00198113,-0.00
 072534,-0.00021846,-0.00230563,-0.00047342,0.00091376,-0.00002855,-0.0
 0029944,-0.00021232,0.00011068,0.00000453,0.00005701,-0.00030992,0.000
 42106,-0.00087133,-0.00008293,0.00019120,-0.00013018,-0.00003516,-0.00
 011780,0.00019547,-0.00000573,0.00002296,0.00007556,-0.00245578,0.0008
 7525,-0.00037821,-0.00009302,0.00002873,0.00036844,0.00007201,0.000016
 41,0.00000673,-0.00024666,-0.00102016,0.00009365,-0.00005329,-0.000216
 81,-0.00009246,-0.00005537,0.00023242,-0.00001450,0.00000322,0.0000553
 3,-0.00006064,-0.00219984,-0.00073799,-0.00088281,0.00029279,0.0006734
 9,0.00095226,0.00003905,-0.00007659,-0.00005436,0.00004680,-0.00002470
 ,-0.00009936,-0.00048813,0.00003988,0.00007743,0.00000228,-0.00008730,
 -0.00008183,0.00000787,-0.00005115,-0.00010797,-0.10979738,-0.00766814
 ,-0.00258205,0.11956378,-0.00069661,0.00741892,-0.00007113,-0.00082675
 ,-0.00034721,0.00016895,-0.00011425,-0.00015606,0.00010162,-0.00001283
 ,0.00000707,-0.00005983,-0.00010266,0.00008287,-0.00032017,-0.00000337
 ,0.00000837,-0.00002413,0.00004566,-0.00005328,0.00002731,0.00000490,-
 0.00000194,0.00001821,0.00161581,-0.00034722,0.00012872,0.00020159,-0.
 00017192,-0.00006372,0.00000028,-0.00007806,-0.00001018,0.00018177,0.0
 0055793,-0.00003788,-0.00000907,0.00001092,0.00000431,-0.00006572,-0.0
 0002876,-0.00000616,-0.00003076,0.00001349,0.00001513,-0.00129899,-0.0
 0045805,-0.00022679,0.00003831,0.00021414,0.00043950,-0.00000778,-0.00
 002039,0.00004166,0.00002334,-0.00010128,-0.00015583,-0.00018163,-0.00
 001275,0.00001933,-0.00002725,-0.00001517,0.00001047,0.00001674,-0.000
 00684,-0.00003183,-0.00768830,-0.01143573,-0.00019929,0.00893756,0.004
 92096,-0.00023154,-0.00008348,0.00744381,0.00168396,0.00019232,-0.0004
 4934,0.00011924,0.00014637,-0.00002013,-0.00003181,0.00006801,-0.00014
 542,0.00023587,-0.00027621,0.00049633,-0.00000150,-0.00003064,0.000005
 87,-0.00004682,-0.00002200,-0.00004130,-0.00002732,-0.00003720,0.00001
 235,-0.00034876,0.00007490,-0.00027829,0.00003485,-0.00007619,0.000028
 90,0.00003639,0.00014306,-0.00001410,-0.00004247,-0.00011481,-0.000063
 53,-0.00000059,-0.00000743,-0.00002154,-0.00000541,-0.00000625,-0.0000
 5415,0.00002048,-0.00002798,-0.00000959,-0.00163997,-0.00024163,-0.000
 48818,0.00002643,0.00036249,0.00044501,0.00002687,-0.00012601,-0.00013
 212,-0.00000221,0.00000622,-0.00006318,-0.00021287,0.00000862,0.000000
 62,0.00000921,-0.00002542,-0.00000761,-0.00001863,0.00001904,-0.000012
 83,-0.00262958,-0.00017751,-0.01090260,0.00304617,0.00023174,0.0042710
 2\\-0.00000453,-0.00000324,0.00000798,0.00000853,0.00000501,0.00000076
 ,0.00000899,-0.00000087,0.00000715,0.00000560,0.00000681,-0.00000067,0
 .00000412,0.00000546,-0.00000292,0.00001570,0.00000799,0.00000387,0.00
 001326,-0.00000031,0.00000684,0.00001225,0.00000408,0.00000434,-0.0000
 0601,0.00000134,-0.00000362,-0.00001151,0.00000308,-0.00000238,-0.0000
 1193,-0.00000449,-0.00000479,-0.00000861,0.00000461,-0.00000585,-0.000
 01326,-0.00000016,-0.00000883,-0.00000917,-0.00000546,-0.00000270,-0.0
 0000531,0.00000193,-0.00000558,-0.00000050,-0.00000223,-0.00000388,0.0
 0000397,0.00000317,-0.00000431,-0.00000472,-0.00000628,0.00000234,0.00
 000459,-0.00000430,0.00000600,-0.00000155,0.00000330,-0.00000111,-0.00
 000538,0.00000501,-0.00000484,0.00000294,0.00000762,-0.00000221,0.0000
 0547,-0.00001101,0.00000216,-0.00000295,-0.00002108,0.00001225\\\@


 "WOULD YOU TELL ME PLEASE, WHICH WAY I OUGHT TO WALK FROM HERE?"
 "THAT DEPENDS A GREAT DEAL ON WHERE YOU WANT TO GO," SAID THE CAT.
 "I DON'T MUCH CARE WHERE -- ", SAID ALICE.
 "THEN IT DOESN'T MATTER WHICH WAY YOU WALK," SAID THE CAT.

                                      -- LEWIS CARROLL
 Job cpu time:       0 days  0 hours 20 minutes 23.3 seconds.
 File lengths (MBytes):  RWF=    144 Int=      0 D2E=      0 Chk=      4 Scr=      1
 Normal termination of Gaussian 09 at Thu Mar 16 15:52:22 2023.
