 Entering Gaussian System, Link 0=g09
 Input=au-1to3-ts-2-af-br-cterm-se-wat-ts-p.com
 Output=au-1to3-ts-2-af-br-cterm-se-wat-ts-p.log
 Initial command:
 /home/scr/programs/g09/l1.exe "/home/scr/guest2/Gau-31566.inp" -scrdir="/home/scr/guest2/"
 Entering Link 1 = /home/scr/programs/g09/l1.exe PID=     31567.
  
 Copyright (c) 1988,1990,1992,1993,1995,1998,2003,2009,2013,
            Gaussian, Inc.  All Rights Reserved.
  
 This is part of the Gaussian(R) 09 program.  It is based on
 the Gaussian(R) 03 system (copyright 2003, Gaussian, Inc.),
 the Gaussian(R) 98 system (copyright 1998, Gaussian, Inc.),
 the Gaussian(R) 94 system (copyright 1995, Gaussian, Inc.),
 the Gaussian 92(TM) system (copyright 1992, Gaussian, Inc.),
 the Gaussian 90(TM) system (copyright 1990, Gaussian, Inc.),
 the Gaussian 88(TM) system (copyright 1988, Gaussian, Inc.),
 the Gaussian 86(TM) system (copyright 1986, Carnegie Mellon
 University), and the Gaussian 82(TM) system (copyright 1983,
 Carnegie Mellon University). Gaussian is a federally registered
 trademark of Gaussian, Inc.
  
 This software contains proprietary and confidential information,
 including trade secrets, belonging to Gaussian, Inc.
  
 This software is provided under written license and may be
 used, copied, transmitted, or stored only in accord with that
 written license.
  
 The following legend is applicable only to US Government
 contracts under FAR:
  
                    RESTRICTED RIGHTS LEGEND
  
 Use, reproduction and disclosure by the US Government is
 subject to restrictions as set forth in subparagraphs (a)
 and (c) of the Commercial Computer Software - Restricted
 Rights clause in FAR 52.227-19.
  
 Gaussian, Inc.
 340 Quinnipiac St., Bldg. 40, Wallingford CT 06492
  
  
 ---------------------------------------------------------------
 Warning -- This program may not be used in any manner that
 competes with the business of Gaussian, Inc. or will provide
 assistance to any competitor of Gaussian, Inc.  The licensee
 of this program is prohibited from giving any competitor of
 Gaussian, Inc. access to this program.  By using this program,
 the user acknowledges that Gaussian, Inc. is engaged in the
 business of creating and licensing software in the field of
 computational chemistry and represents and warrants to the
 licensee that it is not a competitor of Gaussian, Inc. and that
 it will not use this program in any manner prohibited above.
 ---------------------------------------------------------------
  

 Cite this work as:
 Gaussian 09, Revision D.01,
 M. J. Frisch, G. W. Trucks, H. B. Schlegel, G. E. Scuseria, 
 M. A. Robb, J. R. Cheeseman, G. Scalmani, V. Barone, B. Mennucci, 
 G. A. Petersson, H. Nakatsuji, M. Caricato, X. Li, H. P. Hratchian, 
 A. F. Izmaylov, J. Bloino, G. Zheng, J. L. Sonnenberg, M. Hada, 
 M. Ehara, K. Toyota, R. Fukuda, J. Hasegawa, M. Ishida, T. Nakajima, 
 Y. Honda, O. Kitao, H. Nakai, T. Vreven, J. A. Montgomery, Jr., 
 J. E. Peralta, F. Ogliaro, M. Bearpark, J. J. Heyd, E. Brothers, 
 K. N. Kudin, V. N. Staroverov, T. Keith, R. Kobayashi, J. Normand, 
 K. Raghavachari, A. Rendell, J. C. Burant, S. S. Iyengar, J. Tomasi, 
 M. Cossi, N. Rega, J. M. Millam, M. Klene, J. E. Knox, J. B. Cross, 
 V. Bakken, C. Adamo, J. Jaramillo, R. Gomperts, R. E. Stratmann, 
 O. Yazyev, A. J. Austin, R. Cammi, C. Pomelli, J. W. Ochterski, 
 R. L. Martin, K. Morokuma, V. G. Zakrzewski, G. A. Voth, 
 P. Salvador, J. J. Dannenberg, S. Dapprich, A. D. Daniels, 
 O. Farkas, J. B. Foresman, J. V. Ortiz, J. Cioslowski, 
 and D. J. Fox, Gaussian, Inc., Wallingford CT, 2013.
 
 ******************************************
 Gaussian 09:  EM64L-G09RevD.01 24-Apr-2013
                14-Mar-2023 
 ******************************************
 %mem=50000MB
 %nprocshared=15
 Will use up to   15 processors via shared memory.
 -----------------------------------------
 # opt freq=noraman rb3lyp/gen pseudo=read
 -----------------------------------------
 1/14=-1,18=20,19=15,26=3,38=1/1,3;
 2/9=110,12=2,17=6,18=5,40=1/2;
 3/5=7,11=2,16=1,17=8,25=1,30=1,71=1,74=-5,116=1/1,2,3;
 4//1;
 5/5=2,38=5/2;
 6/7=2,8=2,9=2,10=2,28=1/1;
 7//1,2,3,16;
 1/14=-1,18=20,19=15,26=3/3(2);
 2/9=110/2;
 99//99;
 2/9=110/2;
 3/5=7,6=1,11=2,16=1,17=8,25=1,30=1,71=1,74=-5,82=7,116=1/1,2,3;
 4/5=5,16=3,69=1/1;
 5/5=2,38=5/2;
 7//1,2,3,16;
 1/14=-1,18=20,19=15,26=3/3(-5);
 2/9=110/2;
 6/7=2,8=2,9=2,10=2,19=2,28=1/1;
 99/9=1/99;
 -------------------
 Title Card Required
 -------------------
 Symbolic Z-matrix:
 Charge =  0 Multiplicity = 1
 Au                    2.8696   -0.06821  -0.30561 
 P                     4.19388   1.64099   0.79182 
 C                     5.81636   1.94306  -0.0486 
 H                     6.34077   0.99075  -0.01307 
 H                     6.3833    2.65844   0.55276 
 C                     4.61672   1.21911   2.54136 
 H                     5.29585   1.98965   2.91981 
 H                     5.18898   0.27654   2.48435 
 C                     3.2792    3.24921   0.83406 
 H                     2.34461   3.06061   1.37887 
 H                     2.97391   3.4633   -0.19776 
 C                     5.67075   2.43507  -1.49983 
 H                     5.10751   1.72354  -2.10374 
 H                     5.17153   3.40316  -1.56006 
 H                     6.66503   2.53872  -1.94914 
 C                     4.03964   4.43427   1.45136 
 H                     3.401     5.32845   1.43457 
 H                     4.31041   4.25042   2.49471 
 H                     4.95936   4.67419   0.89898 
 C                     3.40837   1.04366   3.45982 
 H                     2.73294   0.2558    3.09787 
 H                     3.73523   0.76001   4.46644 
 H                     2.82423   1.97011   3.56319 
 N                    -8.59197   2.49943  -0.04761 
 C                    -7.1535    2.33324   0.15615 
 C                    -6.68416   0.90434  -0.13261 
 O                    -7.32389  -0.03108   0.36648 
 C                    -6.83528   2.65909   1.63462 
 O                    -5.51776   2.33788   2.01082 
 N                    -5.60594   0.64541  -0.92762 
 C                    -4.75968   1.55949  -1.69592 
 C                    -3.56762   2.12325  -0.88393 
 O                    -3.75761   3.0442   -0.08257 
 N                    -2.30737   1.61409  -1.05636 
 C                    -1.78375   0.60403  -1.97923 
 C                    -1.95557  -0.86008  -1.49703 
 O                    -2.33583  -1.72856  -2.2779 
 C                    -0.29021   0.92518  -2.36823 
 S                     0.91334   1.4665   -0.96017 
 N                    -1.65102  -1.09051  -0.18198 
 C                    -1.10921  -2.40106   0.20916 
 C                     0.42564  -2.35654   0.33371 
 C                    -1.70589  -2.80237   1.58158 
 O                    -1.07982  -2.57797   2.61673 
 N                    -2.9107   -3.44525   1.58532 
 C                    -3.91453  -3.44207   0.54416 
 C                    -5.12682  -2.61692   0.98703 
 O                    -5.38201  -2.39237   2.14881 
 O                    -5.85475  -2.19932  -0.05913 
 H                    -7.09459   3.71326   1.80368 
 H                    -7.48911   2.04014   2.26803 
 H                    -4.90545   2.8043    1.4169 
 H                    -6.62249   3.05192  -0.47105 
 H                    -9.0673    1.71721   0.40282 
 H                    -8.82058   2.43844  -1.0386 
 H                    -5.33057   2.42363  -2.02319 
 H                    -4.42742   1.01676  -2.5828 
 H                    -5.36942  -0.33796  -0.98852 
 H                    -0.33598   1.84237  -2.97587 
 H                     0.11062   0.10738  -2.97255 
 H                    -2.32249   0.64912  -2.93522 
 H                    -1.62041   2.0661   -0.44342 
 H                     0.79749  -3.35097   0.63137 
 H                     0.70173  -1.66835   1.13289 
 H                    -1.40775  -3.10447  -0.56632 
 H                    -1.26493  -0.29976   0.32528 
 H                    -4.2656   -4.46745   0.34104 
 H                    -3.52545  -3.04738  -0.40262 
 H                    -3.29542  -3.52405   2.52526 
 H                    -6.56781  -1.56201   0.25592 
 Se                    1.32613  -1.79154  -1.33899 
 Br                    4.88542  -1.71909   0.21827 
 

 GradGradGradGradGradGradGradGradGradGradGradGradGradGradGradGradGradGrad
 Berny optimization.
 Initialization pass.
                           ----------------------------
                           !    Initial Parameters    !
                           ! (Angstroms and Degrees)  !
 --------------------------                            --------------------------
 ! Name  Definition              Value          Derivative Info.                !
 --------------------------------------------------------------------------------
 ! R1    R(1,2)                  2.4247         estimate D2E/DX2                !
 ! R2    R(1,39)                 2.5711         estimate D2E/DX2                !
 ! R3    R(1,71)                 2.5338         estimate D2E/DX2                !
 ! R4    R(1,72)                 2.6577         estimate D2E/DX2                !
 ! R5    R(2,3)                  1.852          estimate D2E/DX2                !
 ! R6    R(2,6)                  1.8487         estimate D2E/DX2                !
 ! R7    R(2,9)                  1.8506         estimate D2E/DX2                !
 ! R8    R(3,4)                  1.0877         estimate D2E/DX2                !
 ! R9    R(3,5)                  1.0931         estimate D2E/DX2                !
 ! R10   R(3,12)                 1.5393         estimate D2E/DX2                !
 ! R11   R(6,7)                  1.0946         estimate D2E/DX2                !
 ! R12   R(6,8)                  1.1042         estimate D2E/DX2                !
 ! R13   R(6,20)                 1.5279         estimate D2E/DX2                !
 ! R14   R(9,10)                 1.0981         estimate D2E/DX2                !
 ! R15   R(9,11)                 1.0971         estimate D2E/DX2                !
 ! R16   R(9,16)                 1.5374         estimate D2E/DX2                !
 ! R17   R(12,13)                1.0901         estimate D2E/DX2                !
 ! R18   R(12,14)                1.0909         estimate D2E/DX2                !
 ! R19   R(12,15)                1.096          estimate D2E/DX2                !
 ! R20   R(16,17)                1.099          estimate D2E/DX2                !
 ! R21   R(16,18)                1.0935         estimate D2E/DX2                !
 ! R22   R(16,19)                1.0994         estimate D2E/DX2                !
 ! R23   R(20,21)                1.0991         estimate D2E/DX2                !
 ! R24   R(20,22)                1.0957         estimate D2E/DX2                !
 ! R25   R(20,23)                1.1001         estimate D2E/DX2                !
 ! R26   R(24,25)                1.4623         estimate D2E/DX2                !
 ! R27   R(24,54)                1.0201         estimate D2E/DX2                !
 ! R28   R(24,55)                1.0188         estimate D2E/DX2                !
 ! R29   R(25,26)                1.5315         estimate D2E/DX2                !
 ! R30   R(25,28)                1.547          estimate D2E/DX2                !
 ! R31   R(25,53)                1.0917         estimate D2E/DX2                !
 ! R32   R(26,27)                1.2383         estimate D2E/DX2                !
 ! R33   R(26,30)                1.3644         estimate D2E/DX2                !
 ! R34   R(28,29)                1.4073         estimate D2E/DX2                !
 ! R35   R(28,50)                1.0987         estimate D2E/DX2                !
 ! R36   R(28,51)                1.1008         estimate D2E/DX2                !
 ! R37   R(29,52)                0.9722         estimate D2E/DX2                !
 ! R38   R(30,31)                1.4636         estimate D2E/DX2                !
 ! R39   R(30,58)                1.0132         estimate D2E/DX2                !
 ! R40   R(31,32)                1.5486         estimate D2E/DX2                !
 ! R41   R(31,56)                1.0862         estimate D2E/DX2                !
 ! R42   R(31,57)                1.0916         estimate D2E/DX2                !
 ! R43   R(32,33)                1.2355         estimate D2E/DX2                !
 ! R44   R(32,34)                1.3701         estimate D2E/DX2                !
 ! R45   R(34,35)                1.465          estimate D2E/DX2                !
 ! R46   R(34,62)                1.0256         estimate D2E/DX2                !
 ! R47   R(35,36)                1.551          estimate D2E/DX2                !
 ! R48   R(35,38)                1.5764         estimate D2E/DX2                !
 ! R49   R(35,61)                1.0983         estimate D2E/DX2                !
 ! R50   R(36,37)                1.2283         estimate D2E/DX2                !
 ! R51   R(36,40)                1.3694         estimate D2E/DX2                !
 ! R52   R(38,39)                1.9298         estimate D2E/DX2                !
 ! R53   R(38,59)                1.1012         estimate D2E/DX2                !
 ! R54   R(38,60)                1.093          estimate D2E/DX2                !
 ! R55   R(40,41)                1.4711         estimate D2E/DX2                !
 ! R56   R(40,66)                1.0157         estimate D2E/DX2                !
 ! R57   R(41,42)                1.5405         estimate D2E/DX2                !
 ! R58   R(41,43)                1.5494         estimate D2E/DX2                !
 ! R59   R(41,65)                1.0887         estimate D2E/DX2                !
 ! R60   R(42,63)                1.1026         estimate D2E/DX2                !
 ! R61   R(42,64)                1.0902         estimate D2E/DX2                !
 ! R62   R(42,71)                1.9819         estimate D2E/DX2                !
 ! R63   R(43,44)                1.2304         estimate D2E/DX2                !
 ! R64   R(43,45)                1.3656         estimate D2E/DX2                !
 ! R65   R(45,46)                1.4463         estimate D2E/DX2                !
 ! R66   R(45,69)                1.0187         estimate D2E/DX2                !
 ! R67   R(46,47)                1.5319         estimate D2E/DX2                !
 ! R68   R(46,67)                1.1027         estimate D2E/DX2                !
 ! R69   R(46,68)                1.0971         estimate D2E/DX2                !
 ! R70   R(47,48)                1.2105         estimate D2E/DX2                !
 ! R71   R(47,49)                1.3412         estimate D2E/DX2                !
 ! R72   R(49,70)                1.0069         estimate D2E/DX2                !
 ! A1    A(2,1,39)              96.316          estimate D2E/DX2                !
 ! A2    A(2,1,72)              86.2387         estimate D2E/DX2                !
 ! A3    A(39,1,71)             80.7158         estimate D2E/DX2                !
 ! A4    A(71,1,72)             96.8888         estimate D2E/DX2                !
 ! A5    A(1,2,3)              112.8332         estimate D2E/DX2                !
 ! A6    A(1,2,6)              113.1028         estimate D2E/DX2                !
 ! A7    A(1,2,9)              110.6685         estimate D2E/DX2                !
 ! A8    A(3,2,6)              105.4437         estimate D2E/DX2                !
 ! A9    A(3,2,9)              107.5544         estimate D2E/DX2                !
 ! A10   A(6,2,9)              106.8434         estimate D2E/DX2                !
 ! A11   A(2,3,4)              105.3515         estimate D2E/DX2                !
 ! A12   A(2,3,5)              108.148          estimate D2E/DX2                !
 ! A13   A(2,3,12)             113.3966         estimate D2E/DX2                !
 ! A14   A(4,3,5)              107.7552         estimate D2E/DX2                !
 ! A15   A(4,3,12)             110.87           estimate D2E/DX2                !
 ! A16   A(5,3,12)             111.0119         estimate D2E/DX2                !
 ! A17   A(2,6,7)              107.9665         estimate D2E/DX2                !
 ! A18   A(2,6,8)              105.336          estimate D2E/DX2                !
 ! A19   A(2,6,20)             114.4693         estimate D2E/DX2                !
 ! A20   A(7,6,8)              107.2903         estimate D2E/DX2                !
 ! A21   A(7,6,20)             111.3265         estimate D2E/DX2                !
 ! A22   A(8,6,20)             110.0533         estimate D2E/DX2                !
 ! A23   A(2,9,10)             106.423          estimate D2E/DX2                !
 ! A24   A(2,9,11)             106.5975         estimate D2E/DX2                !
 ! A25   A(2,9,16)             115.756          estimate D2E/DX2                !
 ! A26   A(10,9,11)            105.2653         estimate D2E/DX2                !
 ! A27   A(10,9,16)            110.741          estimate D2E/DX2                !
 ! A28   A(11,9,16)            111.3972         estimate D2E/DX2                !
 ! A29   A(3,12,13)            111.2578         estimate D2E/DX2                !
 ! A30   A(3,12,14)            112.2719         estimate D2E/DX2                !
 ! A31   A(3,12,15)            109.3243         estimate D2E/DX2                !
 ! A32   A(13,12,14)           108.1933         estimate D2E/DX2                !
 ! A33   A(13,12,15)           107.6598         estimate D2E/DX2                !
 ! A34   A(14,12,15)           107.9744         estimate D2E/DX2                !
 ! A35   A(9,16,17)            109.4876         estimate D2E/DX2                !
 ! A36   A(9,16,18)            112.0857         estimate D2E/DX2                !
 ! A37   A(9,16,19)            112.3503         estimate D2E/DX2                !
 ! A38   A(17,16,18)           107.1746         estimate D2E/DX2                !
 ! A39   A(17,16,19)           107.5128         estimate D2E/DX2                !
 ! A40   A(18,16,19)           107.997          estimate D2E/DX2                !
 ! A41   A(6,20,21)            111.7385         estimate D2E/DX2                !
 ! A42   A(6,20,22)            110.2466         estimate D2E/DX2                !
 ! A43   A(6,20,23)            112.3161         estimate D2E/DX2                !
 ! A44   A(21,20,22)           107.4761         estimate D2E/DX2                !
 ! A45   A(21,20,23)           107.9575         estimate D2E/DX2                !
 ! A46   A(22,20,23)           106.8634         estimate D2E/DX2                !
 ! A47   A(25,24,54)           108.0405         estimate D2E/DX2                !
 ! A48   A(25,24,55)           110.4541         estimate D2E/DX2                !
 ! A49   A(54,24,55)           106.2014         estimate D2E/DX2                !
 ! A50   A(24,25,26)           112.4098         estimate D2E/DX2                !
 ! A51   A(24,25,28)           108.1539         estimate D2E/DX2                !
 ! A52   A(24,25,53)           108.8812         estimate D2E/DX2                !
 ! A53   A(26,25,28)           108.2806         estimate D2E/DX2                !
 ! A54   A(26,25,53)           110.9053         estimate D2E/DX2                !
 ! A55   A(28,25,53)           108.0797         estimate D2E/DX2                !
 ! A56   A(25,26,27)           118.0666         estimate D2E/DX2                !
 ! A57   A(25,26,30)           121.9447         estimate D2E/DX2                !
 ! A58   A(27,26,30)           119.9834         estimate D2E/DX2                !
 ! A59   A(25,28,29)           113.5759         estimate D2E/DX2                !
 ! A60   A(25,28,50)           107.4937         estimate D2E/DX2                !
 ! A61   A(25,28,51)           108.0168         estimate D2E/DX2                !
 ! A62   A(29,28,50)           113.5048         estimate D2E/DX2                !
 ! A63   A(29,28,51)           105.8964         estimate D2E/DX2                !
 ! A64   A(50,28,51)           108.1051         estimate D2E/DX2                !
 ! A65   A(28,29,52)           108.4704         estimate D2E/DX2                !
 ! A66   A(26,30,31)           130.1122         estimate D2E/DX2                !
 ! A67   A(26,30,58)           113.8076         estimate D2E/DX2                !
 ! A68   A(31,30,58)           116.0796         estimate D2E/DX2                !
 ! A69   A(30,31,32)           113.4041         estimate D2E/DX2                !
 ! A70   A(30,31,56)           110.558          estimate D2E/DX2                !
 ! A71   A(30,31,57)           106.9771         estimate D2E/DX2                !
 ! A72   A(32,31,56)           105.8397         estimate D2E/DX2                !
 ! A73   A(32,31,57)           111.8834         estimate D2E/DX2                !
 ! A74   A(56,31,57)           108.1038         estimate D2E/DX2                !
 ! A75   A(31,32,33)           119.544          estimate D2E/DX2                !
 ! A76   A(31,32,34)           120.4482         estimate D2E/DX2                !
 ! A77   A(33,32,34)           120.0062         estimate D2E/DX2                !
 ! A78   A(32,34,35)           131.6274         estimate D2E/DX2                !
 ! A79   A(32,34,62)           112.1537         estimate D2E/DX2                !
 ! A80   A(35,34,62)           116.1636         estimate D2E/DX2                !
 ! A81   A(34,35,36)           114.5442         estimate D2E/DX2                !
 ! A82   A(34,35,38)           110.7096         estimate D2E/DX2                !
 ! A83   A(34,35,61)           110.164          estimate D2E/DX2                !
 ! A84   A(36,35,38)           111.9609         estimate D2E/DX2                !
 ! A85   A(36,35,61)           104.7756         estimate D2E/DX2                !
 ! A86   A(38,35,61)           103.9808         estimate D2E/DX2                !
 ! A87   A(35,36,37)           120.272          estimate D2E/DX2                !
 ! A88   A(35,36,40)           115.6434         estimate D2E/DX2                !
 ! A89   A(37,36,40)           124.0835         estimate D2E/DX2                !
 ! A90   A(35,38,39)           117.9028         estimate D2E/DX2                !
 ! A91   A(35,38,59)           105.4543         estimate D2E/DX2                !
 ! A92   A(35,38,60)           109.3568         estimate D2E/DX2                !
 ! A93   A(39,38,59)           101.2392         estimate D2E/DX2                !
 ! A94   A(39,38,60)           112.6175         estimate D2E/DX2                !
 ! A95   A(59,38,60)           109.4721         estimate D2E/DX2                !
 ! A96   A(1,39,38)            119.5269         estimate D2E/DX2                !
 ! A97   A(36,40,41)           119.1539         estimate D2E/DX2                !
 ! A98   A(36,40,66)           115.6669         estimate D2E/DX2                !
 ! A99   A(41,40,66)           114.8831         estimate D2E/DX2                !
 ! A100  A(40,41,42)           111.2658         estimate D2E/DX2                !
 ! A101  A(40,41,43)           108.931          estimate D2E/DX2                !
 ! A102  A(40,41,65)           106.571          estimate D2E/DX2                !
 ! A103  A(42,41,43)           108.6359         estimate D2E/DX2                !
 ! A104  A(42,41,65)           110.4544         estimate D2E/DX2                !
 ! A105  A(43,41,65)           110.977          estimate D2E/DX2                !
 ! A106  A(41,42,63)           109.3754         estimate D2E/DX2                !
 ! A107  A(41,42,64)           109.2578         estimate D2E/DX2                !
 ! A108  A(41,42,71)           113.121          estimate D2E/DX2                !
 ! A109  A(63,42,64)           106.6198         estimate D2E/DX2                !
 ! A110  A(63,42,71)           109.3729         estimate D2E/DX2                !
 ! A111  A(64,42,71)           108.8853         estimate D2E/DX2                !
 ! A112  A(41,43,44)           120.1344         estimate D2E/DX2                !
 ! A113  A(41,43,45)           117.6532         estimate D2E/DX2                !
 ! A114  A(44,43,45)           122.1733         estimate D2E/DX2                !
 ! A115  A(43,45,46)           127.5426         estimate D2E/DX2                !
 ! A116  A(43,45,69)           111.8472         estimate D2E/DX2                !
 ! A117  A(46,45,69)           113.7215         estimate D2E/DX2                !
 ! A118  A(45,46,47)           110.0197         estimate D2E/DX2                !
 ! A119  A(45,46,67)           110.5815         estimate D2E/DX2                !
 ! A120  A(45,46,68)           112.0805         estimate D2E/DX2                !
 ! A121  A(47,46,67)           107.5892         estimate D2E/DX2                !
 ! A122  A(47,46,68)           109.6562         estimate D2E/DX2                !
 ! A123  A(67,46,68)           106.7671         estimate D2E/DX2                !
 ! A124  A(46,47,48)           122.9717         estimate D2E/DX2                !
 ! A125  A(46,47,49)           111.8226         estimate D2E/DX2                !
 ! A126  A(48,47,49)           125.2027         estimate D2E/DX2                !
 ! A127  A(47,49,70)           109.7168         estimate D2E/DX2                !
 ! A128  A(1,71,42)             97.2645         estimate D2E/DX2                !
 ! A129  L(2,1,71,72,-1)       183.1275         estimate D2E/DX2                !
 ! A130  L(39,1,72,71,-1)      177.6047         estimate D2E/DX2                !
 ! A131  L(2,1,71,72,-2)       176.5424         estimate D2E/DX2                !
 ! A132  L(39,1,72,71,-2)      177.3163         estimate D2E/DX2                !
 ! D1    D(39,1,2,3)          -116.6568         estimate D2E/DX2                !
 ! D2    D(39,1,2,6)           123.7565         estimate D2E/DX2                !
 ! D3    D(39,1,2,9)             3.9138         estimate D2E/DX2                !
 ! D4    D(72,1,2,3)            60.8292         estimate D2E/DX2                !
 ! D5    D(72,1,2,6)           -58.7575         estimate D2E/DX2                !
 ! D6    D(72,1,2,9)          -178.6001         estimate D2E/DX2                !
 ! D7    D(3,2,71,42)          150.7546         estimate D2E/DX2                !
 ! D8    D(6,2,71,42)           29.9692         estimate D2E/DX2                !
 ! D9    D(9,2,71,42)          -88.3032         estimate D2E/DX2                !
 ! D10   D(2,1,39,38)          160.325          estimate D2E/DX2                !
 ! D11   D(71,1,39,38)         -23.2894         estimate D2E/DX2                !
 ! D12   D(39,1,71,42)         -93.4979         estimate D2E/DX2                !
 ! D13   D(72,1,71,42)          89.1858         estimate D2E/DX2                !
 ! D14   D(1,2,3,4)            -60.1936         estimate D2E/DX2                !
 ! D15   D(1,2,3,5)           -175.2036         estimate D2E/DX2                !
 ! D16   D(1,2,3,12)            61.2265         estimate D2E/DX2                !
 ! D17   D(6,2,3,4)             63.7249         estimate D2E/DX2                !
 ! D18   D(6,2,3,5)            -51.285          estimate D2E/DX2                !
 ! D19   D(6,2,3,12)          -174.855          estimate D2E/DX2                !
 ! D20   D(9,2,3,4)            177.4713         estimate D2E/DX2                !
 ! D21   D(9,2,3,5)             62.4614         estimate D2E/DX2                !
 ! D22   D(9,2,3,12)           -61.1086         estimate D2E/DX2                !
 ! D23   D(1,2,6,7)            174.2164         estimate D2E/DX2                !
 ! D24   D(1,2,6,8)             59.8282         estimate D2E/DX2                !
 ! D25   D(1,2,6,20)           -61.199          estimate D2E/DX2                !
 ! D26   D(3,2,6,7)             50.4684         estimate D2E/DX2                !
 ! D27   D(3,2,6,8)            -63.9198         estimate D2E/DX2                !
 ! D28   D(3,2,6,20)           175.053          estimate D2E/DX2                !
 ! D29   D(9,2,6,7)            -63.7725         estimate D2E/DX2                !
 ! D30   D(9,2,6,8)           -178.1607         estimate D2E/DX2                !
 ! D31   D(9,2,6,20)            60.8122         estimate D2E/DX2                !
 ! D32   D(1,2,9,10)            59.0817         estimate D2E/DX2                !
 ! D33   D(1,2,9,11)           -52.8979         estimate D2E/DX2                !
 ! D34   D(1,2,9,16)          -177.4041         estimate D2E/DX2                !
 ! D35   D(3,2,9,10)          -177.2533         estimate D2E/DX2                !
 ! D36   D(3,2,9,11)            70.7671         estimate D2E/DX2                !
 ! D37   D(3,2,9,16)           -53.7391         estimate D2E/DX2                !
 ! D38   D(6,2,9,10)           -64.4487         estimate D2E/DX2                !
 ! D39   D(6,2,9,11)          -176.4283         estimate D2E/DX2                !
 ! D40   D(6,2,9,16)            59.0655         estimate D2E/DX2                !
 ! D41   D(2,3,12,13)          -58.123          estimate D2E/DX2                !
 ! D42   D(2,3,12,14)           63.3005         estimate D2E/DX2                !
 ! D43   D(2,3,12,15)         -176.8979         estimate D2E/DX2                !
 ! D44   D(4,3,12,13)           60.1499         estimate D2E/DX2                !
 ! D45   D(4,3,12,14)         -178.4266         estimate D2E/DX2                !
 ! D46   D(4,3,12,15)          -58.625          estimate D2E/DX2                !
 ! D47   D(5,3,12,13)          179.8892         estimate D2E/DX2                !
 ! D48   D(5,3,12,14)          -58.6873         estimate D2E/DX2                !
 ! D49   D(5,3,12,15)           61.1143         estimate D2E/DX2                !
 ! D50   D(2,6,20,21)           58.4755         estimate D2E/DX2                !
 ! D51   D(2,6,20,22)          177.9254         estimate D2E/DX2                !
 ! D52   D(2,6,20,23)          -63.0211         estimate D2E/DX2                !
 ! D53   D(7,6,20,21)         -178.7399         estimate D2E/DX2                !
 ! D54   D(7,6,20,22)          -59.29           estimate D2E/DX2                !
 ! D55   D(7,6,20,23)           59.7635         estimate D2E/DX2                !
 ! D56   D(8,6,20,21)          -59.9129         estimate D2E/DX2                !
 ! D57   D(8,6,20,22)           59.537          estimate D2E/DX2                !
 ! D58   D(8,6,20,23)          178.5904         estimate D2E/DX2                !
 ! D59   D(2,9,16,17)         -179.3592         estimate D2E/DX2                !
 ! D60   D(2,9,16,18)          -60.5678         estimate D2E/DX2                !
 ! D61   D(2,9,16,19)           61.2588         estimate D2E/DX2                !
 ! D62   D(10,9,16,17)         -58.1361         estimate D2E/DX2                !
 ! D63   D(10,9,16,18)          60.6553         estimate D2E/DX2                !
 ! D64   D(10,9,16,19)        -177.518          estimate D2E/DX2                !
 ! D65   D(11,9,16,17)          58.6565         estimate D2E/DX2                !
 ! D66   D(11,9,16,18)         177.4479         estimate D2E/DX2                !
 ! D67   D(11,9,16,19)         -60.7255         estimate D2E/DX2                !
 ! D68   D(54,24,25,26)         46.2884         estimate D2E/DX2                !
 ! D69   D(54,24,25,28)        -73.2022         estimate D2E/DX2                !
 ! D70   D(54,24,25,53)        169.584          estimate D2E/DX2                !
 ! D71   D(55,24,25,26)        -69.4754         estimate D2E/DX2                !
 ! D72   D(55,24,25,28)        171.0339         estimate D2E/DX2                !
 ! D73   D(55,24,25,53)         53.8202         estimate D2E/DX2                !
 ! D74   D(24,25,26,27)        -48.0269         estimate D2E/DX2                !
 ! D75   D(24,25,26,30)        131.1323         estimate D2E/DX2                !
 ! D76   D(28,25,26,27)         71.3899         estimate D2E/DX2                !
 ! D77   D(28,25,26,30)       -109.4509         estimate D2E/DX2                !
 ! D78   D(53,25,26,27)       -170.1826         estimate D2E/DX2                !
 ! D79   D(53,25,26,30)          8.9766         estimate D2E/DX2                !
 ! D80   D(24,25,28,29)        170.7151         estimate D2E/DX2                !
 ! D81   D(24,25,28,50)        -62.8585         estimate D2E/DX2                !
 ! D82   D(24,25,28,51)         53.5738         estimate D2E/DX2                !
 ! D83   D(26,25,28,29)         48.6529         estimate D2E/DX2                !
 ! D84   D(26,25,28,50)        175.0792         estimate D2E/DX2                !
 ! D85   D(26,25,28,51)        -68.4884         estimate D2E/DX2                !
 ! D86   D(53,25,28,29)        -71.5559         estimate D2E/DX2                !
 ! D87   D(53,25,28,50)         54.8705         estimate D2E/DX2                !
 ! D88   D(53,25,28,51)        171.3029         estimate D2E/DX2                !
 ! D89   D(25,26,30,31)         -3.9226         estimate D2E/DX2                !
 ! D90   D(25,26,30,58)        176.3793         estimate D2E/DX2                !
 ! D91   D(27,26,30,31)        175.2209         estimate D2E/DX2                !
 ! D92   D(27,26,30,58)         -4.4772         estimate D2E/DX2                !
 ! D93   D(25,28,29,52)         56.49           estimate D2E/DX2                !
 ! D94   D(50,28,29,52)        -66.7018         estimate D2E/DX2                !
 ! D95   D(51,28,29,52)        174.8599         estimate D2E/DX2                !
 ! D96   D(26,30,31,32)         88.1853         estimate D2E/DX2                !
 ! D97   D(26,30,31,56)        -30.4982         estimate D2E/DX2                !
 ! D98   D(26,30,31,57)       -147.9815         estimate D2E/DX2                !
 ! D99   D(58,30,31,32)        -92.1222         estimate D2E/DX2                !
 ! D100  D(58,30,31,56)        149.1944         estimate D2E/DX2                !
 ! D101  D(58,30,31,57)         31.711          estimate D2E/DX2                !
 ! D102  D(30,31,32,33)        -78.4604         estimate D2E/DX2                !
 ! D103  D(30,31,32,34)        102.0029         estimate D2E/DX2                !
 ! D104  D(56,31,32,33)         42.908          estimate D2E/DX2                !
 ! D105  D(56,31,32,34)       -136.6287         estimate D2E/DX2                !
 ! D106  D(57,31,32,33)        160.4271         estimate D2E/DX2                !
 ! D107  D(57,31,32,34)        -19.1096         estimate D2E/DX2                !
 ! D108  D(31,32,34,35)          4.0137         estimate D2E/DX2                !
 ! D109  D(31,32,34,62)       -178.852          estimate D2E/DX2                !
 ! D110  D(33,32,34,35)       -175.5209         estimate D2E/DX2                !
 ! D111  D(33,32,34,62)          1.6134         estimate D2E/DX2                !
 ! D112  D(32,34,35,36)        -84.4159         estimate D2E/DX2                !
 ! D113  D(32,34,35,38)        147.8378         estimate D2E/DX2                !
 ! D114  D(32,34,35,61)         33.3827         estimate D2E/DX2                !
 ! D115  D(62,34,35,36)         98.5413         estimate D2E/DX2                !
 ! D116  D(62,34,35,38)        -29.205          estimate D2E/DX2                !
 ! D117  D(62,34,35,61)       -143.6601         estimate D2E/DX2                !
 ! D118  D(34,35,36,37)        136.2993         estimate D2E/DX2                !
 ! D119  D(34,35,36,40)        -44.0665         estimate D2E/DX2                !
 ! D120  D(38,35,36,37)        -96.593          estimate D2E/DX2                !
 ! D121  D(38,35,36,40)         83.0412         estimate D2E/DX2                !
 ! D122  D(61,35,36,37)         15.4785         estimate D2E/DX2                !
 ! D123  D(61,35,36,40)       -164.8873         estimate D2E/DX2                !
 ! D124  D(34,35,38,39)         43.9017         estimate D2E/DX2                !
 ! D125  D(34,35,38,59)        -68.1361         estimate D2E/DX2                !
 ! D126  D(34,35,38,60)        174.2379         estimate D2E/DX2                !
 ! D127  D(36,35,38,39)        -85.2429         estimate D2E/DX2                !
 ! D128  D(36,35,38,59)        162.7193         estimate D2E/DX2                !
 ! D129  D(36,35,38,60)         45.0933         estimate D2E/DX2                !
 ! D130  D(61,35,38,39)        162.1893         estimate D2E/DX2                !
 ! D131  D(61,35,38,59)         50.1515         estimate D2E/DX2                !
 ! D132  D(61,35,38,60)        -67.4745         estimate D2E/DX2                !
 ! D133  D(35,36,40,41)       -148.5989         estimate D2E/DX2                !
 ! D134  D(35,36,40,66)         -5.2181         estimate D2E/DX2                !
 ! D135  D(37,36,40,41)         31.0197         estimate D2E/DX2                !
 ! D136  D(37,36,40,66)        174.4005         estimate D2E/DX2                !
 ! D137  D(35,38,39,1)         113.4329         estimate D2E/DX2                !
 ! D138  D(59,38,39,1)        -132.1959         estimate D2E/DX2                !
 ! D139  D(60,38,39,1)         -15.3899         estimate D2E/DX2                !
 ! D140  D(36,40,41,42)         98.3126         estimate D2E/DX2                !
 ! D141  D(36,40,41,43)       -141.9519         estimate D2E/DX2                !
 ! D142  D(36,40,41,65)        -22.1553         estimate D2E/DX2                !
 ! D143  D(66,40,41,42)        -45.3419         estimate D2E/DX2                !
 ! D144  D(66,40,41,43)         74.3936         estimate D2E/DX2                !
 ! D145  D(66,40,41,65)       -165.8098         estimate D2E/DX2                !
 ! D146  D(40,41,42,63)        179.7691         estimate D2E/DX2                !
 ! D147  D(40,41,42,64)         63.4081         estimate D2E/DX2                !
 ! D148  D(40,41,42,71)        -58.0567         estimate D2E/DX2                !
 ! D149  D(43,41,42,63)         59.8585         estimate D2E/DX2                !
 ! D150  D(43,41,42,64)        -56.5024         estimate D2E/DX2                !
 ! D151  D(43,41,42,71)       -177.9673         estimate D2E/DX2                !
 ! D152  D(65,41,42,63)        -62.0798         estimate D2E/DX2                !
 ! D153  D(65,41,42,64)       -178.4407         estimate D2E/DX2                !
 ! D154  D(65,41,42,71)         60.0944         estimate D2E/DX2                !
 ! D155  D(40,41,43,44)        -96.0165         estimate D2E/DX2                !
 ! D156  D(40,41,43,45)         86.2091         estimate D2E/DX2                !
 ! D157  D(42,41,43,44)         25.337          estimate D2E/DX2                !
 ! D158  D(42,41,43,45)       -152.4374         estimate D2E/DX2                !
 ! D159  D(65,41,43,44)        146.9563         estimate D2E/DX2                !
 ! D160  D(65,41,43,45)        -30.8181         estimate D2E/DX2                !
 ! D161  D(41,42,71,1)         131.9526         estimate D2E/DX2                !
 ! D162  D(63,42,71,1)        -105.8719         estimate D2E/DX2                !
 ! D163  D(64,42,71,1)          10.2781         estimate D2E/DX2                !
 ! D164  D(41,43,45,46)        -21.4346         estimate D2E/DX2                !
 ! D165  D(41,43,45,69)       -170.1658         estimate D2E/DX2                !
 ! D166  D(44,43,45,46)        160.8395         estimate D2E/DX2                !
 ! D167  D(44,43,45,69)         12.1083         estimate D2E/DX2                !
 ! D168  D(43,45,46,47)       -108.5336         estimate D2E/DX2                !
 ! D169  D(43,45,46,67)        132.7567         estimate D2E/DX2                !
 ! D170  D(43,45,46,68)         13.7528         estimate D2E/DX2                !
 ! D171  D(69,45,46,47)         39.7149         estimate D2E/DX2                !
 ! D172  D(69,45,46,67)        -78.9948         estimate D2E/DX2                !
 ! D173  D(69,45,46,68)        162.0013         estimate D2E/DX2                !
 ! D174  D(45,46,47,48)        -22.0662         estimate D2E/DX2                !
 ! D175  D(45,46,47,49)        158.5245         estimate D2E/DX2                !
 ! D176  D(67,46,47,48)         98.4648         estimate D2E/DX2                !
 ! D177  D(67,46,47,49)        -80.9446         estimate D2E/DX2                !
 ! D178  D(68,46,47,48)       -145.7759         estimate D2E/DX2                !
 ! D179  D(68,46,47,49)         34.8147         estimate D2E/DX2                !
 ! D180  D(46,47,49,70)       -172.4811         estimate D2E/DX2                !
 ! D181  D(48,47,49,70)          8.1253         estimate D2E/DX2                !
 --------------------------------------------------------------------------------
 Trust Radius=3.00D-01 FncErr=1.00D-07 GrdErr=1.00D-06
 Number of steps in this run=    395 maximum allowed number of steps=    432.
 GradGradGradGradGradGradGradGradGradGradGradGradGradGradGradGradGradGrad

 Stoichiometry    C19H36AuBrN5O7PSSe
 Framework group  C1[X(C19H36AuBrN5O7PSSe)]
 Deg. of freedom   210
 Full point group                 C1      NOp   1
 Largest Abelian subgroup         C1      NOp   1
 Largest concise Abelian subgroup C1      NOp   1
                         Standard orientation:                         
 ---------------------------------------------------------------------
 Center     Atomic      Atomic             Coordinates (Angstroms)
 Number     Number       Type             X           Y           Z
 ---------------------------------------------------------------------
      1         79           0        2.865241   -0.075071   -0.294340
      2         15           0        4.187819    1.632988    0.806894
      3          6           0        5.814713    1.930793   -0.026491
      4          1           0        6.337101    0.977507    0.012692
      5          1           0        6.380293    2.645858    0.576519
      6          6           0        4.601830    1.212608    2.558904
      7          1           0        5.280731    1.982321    2.939439
      8          1           0        5.172506    0.268847    2.505745
      9          6           0        3.276102    3.243045    0.842836
     10          1           0        2.338668    3.056987    1.383606
     11          1           0        2.975955    3.456369   -0.190646
     12          6           0        5.676702    2.421168   -1.479018
     13          1           0        5.114842    1.709935   -2.084563
     14          1           0        5.179662    3.390141   -1.542803
     15          1           0        6.673228    2.522288   -1.923904
     16          6           0        4.036025    4.427436    1.462056
     17          1           0        3.399218    5.322839    1.441162
     18          1           0        4.301658    4.244445    2.506871
     19          1           0        4.958724    4.664836    0.913566
     20          6           0        3.388961    1.040721    3.472053
     21          1           0        2.713655    0.253703    3.108046
     22          1           0        3.710658    0.757766    4.480527
     23          1           0        2.806157    1.968442    3.571529
     24          7           0       -8.592351    2.515214   -0.092155
     25          6           0       -7.155158    2.346500    0.118400
     26          6           0       -6.687293    0.916300   -0.166326
     27          8           0       -7.331127   -0.017204    0.331055
     28          6           0       -6.843067    2.673683    1.597885
     29          8           0       -5.527909    2.350397    1.980533
     30          7           0       -5.605955    0.654221   -0.956056
     31          6           0       -4.754405    1.565640   -1.721674
     32          6           0       -3.564979    2.128155   -0.904978
     33          8           0       -3.756832    3.050524   -0.105711
     34          7           0       -2.304950    1.616306   -1.070976
     35          6           0       -1.779082    0.604014   -1.990119
     36          6           0       -1.955964   -0.859119   -1.506784
     37          8           0       -2.334349   -1.727887   -2.288246
     38          6           0       -0.283159    0.921738   -2.372696
     39         16           0        0.914998    1.462579   -0.959860
     40          7           0       -1.657889   -1.088404   -0.190054
     41          6           0       -1.120433   -2.399493    0.205283
     42          6           0        0.413921   -2.357794    0.336796
     43          6           0       -1.724160   -2.797827    1.575480
     44          8           0       -1.102397   -2.573271    2.613190
     45          7           0       -2.930233   -3.438352    1.574550
     46          6           0       -3.929282   -3.434589    0.528809
     47          6           0       -5.141970   -2.606499    0.965045
     48          8           0       -5.402027   -2.379916    2.125350
     49          8           0       -5.864292   -2.188863   -0.084986
     50          1           0       -7.101089    3.728576    1.764372
     51          1           0       -7.500993    2.056847    2.229107
     52          1           0       -4.911974    2.814841    1.388803
     53          1           0       -6.619881    3.063312   -0.507307
     54          1           0       -9.071266    1.734516    0.357122
     55          1           0       -8.816550    2.453364   -1.084100
     56          1           0       -5.322106    2.430458   -2.052694
     57          1           0       -4.419155    1.021095   -2.606316
     58          1           0       -5.371079   -0.329687   -1.014588
     59          1           0       -0.324358    1.838211   -2.981747
     60          1           0        0.118835    0.102360   -2.974105
     61          1           0       -2.313362    0.648891   -2.948614
     62          1           0       -1.619917    2.067788   -0.455497
     63          1           0        0.782459   -3.352548    0.637456
     64          1           0        0.687691   -1.669089    1.136327
     65          1           0       -1.416795   -3.103342   -0.570635
     66          1           0       -1.272573   -0.297743    0.317933
     67          1           0       -4.281416   -4.459551    0.325429
     68          1           0       -3.535107   -3.041912   -0.416701
     69          1           0       -3.319399   -3.515154    2.512828
     70          1           0       -6.577538   -1.549754    0.225966
     71         34           0        1.323148   -1.796762   -1.332512
     72         35           0        4.875415   -1.729182    0.240925
 ---------------------------------------------------------------------
 Rotational constants (GHZ):      0.1179091      0.0337035      0.0302725
 General basis read from cards:  (5D, 7F)
 ======================================================================================================
                                       Pseudopotential Parameters
 ======================================================================================================
  Center     Atomic      Valence      Angular      Power
  Number     Number     Electrons     Momentum     of R      Exponent        Coefficient   SO-Coeffient
 ======================================================================================================
    1         79           19
                                      G and up 
                                                     1      622.6287956      -60.00000000    0.00000000
                                                     2      136.2843607     -555.52923120    0.00000000
                                                     2       33.1549781     -168.00197850    0.00000000
                                                     2        9.9894895      -63.03998750    0.00000000
                                                     2        3.0481312       -4.25166810    0.00000000
                                      S - G
                                                     0      194.7374304        3.00000000    0.00000000
                                                     1      351.5327447       38.60208800    0.00000000
                                                     2      122.3270402      864.83707270    0.00000000
                                                     2       32.0914617      374.99355200    0.00000000
                                                     2        5.2451812      289.79101000    0.00000000
                                                     2        4.4916223     -152.45327730    0.00000000
                                      P - G
                                                     0      420.6158801        2.00000000    0.00000000
                                                     1      109.4417815       73.88856250    0.00000000
                                                     2       34.1714280      326.67298720    0.00000000
                                                     2        5.9879750      126.58145910    0.00000000
                                      D - G
                                                     0      219.2666158        3.00000000    0.00000000
                                                     1      122.7297786       55.67931490    0.00000000
                                                     2       63.1063369      449.19873350    0.00000000
                                                     2       18.3684520      215.02690910    0.00000000
                                                     2        4.4972844       64.08409950    0.00000000
                                      F - G
                                                     0      108.5506037        4.00000000    0.00000000
                                                     1       56.4795527       51.80653350    0.00000000
                                                     2       29.2069159      231.21831130    0.00000000
                                                     2        9.5440543      119.00473860    0.00000000
                                                     2        2.8965118       15.34241880    0.00000000
    2         15
                                   No pseudopotential on this center.
    3          6
                                   No pseudopotential on this center.
    4          1
                                   No pseudopotential on this center.
    5          1
                                   No pseudopotential on this center.
    6          6
                                   No pseudopotential on this center.
    7          1
                                   No pseudopotential on this center.
    8          1
                                   No pseudopotential on this center.
    9          6
                                   No pseudopotential on this center.
   10          1
                                   No pseudopotential on this center.
   11          1
                                   No pseudopotential on this center.
   12          6
                                   No pseudopotential on this center.
   13          1
                                   No pseudopotential on this center.
   14          1
                                   No pseudopotential on this center.
   15          1
                                   No pseudopotential on this center.
   16          6
                                   No pseudopotential on this center.
   17          1
                                   No pseudopotential on this center.
   18          1
                                   No pseudopotential on this center.
   19          1
                                   No pseudopotential on this center.
   20          6
                                   No pseudopotential on this center.
   21          1
                                   No pseudopotential on this center.
   22          1
                                   No pseudopotential on this center.
   23          1
                                   No pseudopotential on this center.
   24          7
                                   No pseudopotential on this center.
   25          6
                                   No pseudopotential on this center.
   26          6
                                   No pseudopotential on this center.
   27          8
                                   No pseudopotential on this center.
   28          6
                                   No pseudopotential on this center.
   29          8
                                   No pseudopotential on this center.
   30          7
                                   No pseudopotential on this center.
   31          6
                                   No pseudopotential on this center.
   32          6
                                   No pseudopotential on this center.
   33          8
                                   No pseudopotential on this center.
   34          7
                                   No pseudopotential on this center.
   35          6
                                   No pseudopotential on this center.
   36          6
                                   No pseudopotential on this center.
   37          8
                                   No pseudopotential on this center.
   38          6
                                   No pseudopotential on this center.
   39         16
                                   No pseudopotential on this center.
   40          7
                                   No pseudopotential on this center.
   41          6
                                   No pseudopotential on this center.
   42          6
                                   No pseudopotential on this center.
   43          6
                                   No pseudopotential on this center.
   44          8
                                   No pseudopotential on this center.
   45          7
                                   No pseudopotential on this center.
   46          6
                                   No pseudopotential on this center.
   47          6
                                   No pseudopotential on this center.
   48          8
                                   No pseudopotential on this center.
   49          8
                                   No pseudopotential on this center.
   50          1
                                   No pseudopotential on this center.
   51          1
                                   No pseudopotential on this center.
   52          1
                                   No pseudopotential on this center.
   53          1
                                   No pseudopotential on this center.
   54          1
                                   No pseudopotential on this center.
   55          1
                                   No pseudopotential on this center.
   56          1
                                   No pseudopotential on this center.
   57          1
                                   No pseudopotential on this center.
   58          1
                                   No pseudopotential on this center.
   59          1
                                   No pseudopotential on this center.
   60          1
                                   No pseudopotential on this center.
   61          1
                                   No pseudopotential on this center.
   62          1
                                   No pseudopotential on this center.
   63          1
                                   No pseudopotential on this center.
   64          1
                                   No pseudopotential on this center.
   65          1
                                   No pseudopotential on this center.
   66          1
                                   No pseudopotential on this center.
   67          1
                                   No pseudopotential on this center.
   68          1
                                   No pseudopotential on this center.
   69          1
                                   No pseudopotential on this center.
   70          1
                                   No pseudopotential on this center.
   71         34
                                   No pseudopotential on this center.
   72         35
                                   No pseudopotential on this center.
 ======================================================================================================
 There are   683 symmetry adapted cartesian basis functions of A   symmetry.
 There are   640 symmetry adapted basis functions of A   symmetry.
   640 basis functions,  1330 primitive gaussians,   683 cartesian basis functions
   180 alpha electrons      180 beta electrons
       nuclear repulsion energy      6667.5230663095 Hartrees.
 NAtoms=   72 NActive=   72 NUniq=   72 SFac= 1.00D+00 NAtFMM=   60 NAOKFM=T Big=T
 Integral buffers will be    131072 words long.
 Raffenetti 2 integral format.
 Two-electron integral symmetry is turned on.
 One-electron integrals computed using PRISM.
   1 Symmetry operations used in ECPInt.
 ECPInt:  NShTT=   29890 NPrTT=  178156 LenC2=   21215 LenP2D=   65528.
 LDataN:  DoStor=T MaxTD1= 7 Len=  274
 NBasis=   640 RedAO= T EigKep=  2.27D-03  NBF=   640
 NBsUse=   640 1.00D-06 EigRej= -1.00D+00 NBFU=   640
 Defaulting to unpruned grid for atomic number  79.
 ExpMin= 2.79D-02 ExpMax= 5.74D+05 ExpMxC= 5.74D+03 IAcc=3 IRadAn=         5 AccDes= 0.00D+00
 Harris functional with IExCor=  402 and IRadAn=       5 diagonalized for initial guess.
 HarFok:  IExCor=  402 AccDes= 0.00D+00 IRadAn=         5 IDoV= 1 UseB2=F ITyADJ=14
 ICtDFT=  3500011 ScaDFX=  1.000000  1.000000  1.000000  1.000000
 Defaulting to unpruned grid for atomic number  79.
 Defaulting to unpruned grid for atomic number  79.
 Defaulting to unpruned grid for atomic number  79.
 Defaulting to unpruned grid for atomic number  79.
 Defaulting to unpruned grid for atomic number  79.
 Defaulting to unpruned grid for atomic number  79.
 Defaulting to unpruned grid for atomic number  79.
 Defaulting to unpruned grid for atomic number  79.
 Defaulting to unpruned grid for atomic number  79.
 Defaulting to unpruned grid for atomic number  79.
 Defaulting to unpruned grid for atomic number  79.
 Defaulting to unpruned grid for atomic number  79.
 Defaulting to unpruned grid for atomic number  79.
 Defaulting to unpruned grid for atomic number  79.
 Defaulting to unpruned grid for atomic number  79.
 FoFCou: FMM=F IPFlag=           0 FMFlag=      100000 FMFlg1=        2001
         NFxFlg=           0 DoJE=T BraDBF=F KetDBF=T FulRan=T
         wScrn=  0.000000 ICntrl=     500 IOpCl=  0 I1Cent=   200000004 NGrid=           0
         NMat0=    1 NMatS0=      1 NMatT0=    0 NMatD0=    1 NMtDS0=    0 NMtDT0=    0
 Petite list used in FoFCou.
 Requested convergence on RMS density matrix=1.00D-08 within 128 cycles.
 Requested convergence on MAX density matrix=1.00D-06.
 Requested convergence on             energy=1.00D-06.
 No special actions if energy rises.
 Defaulting to unpruned grid for atomic number  79.
 Defaulting to unpruned grid for atomic number  79.
 Defaulting to unpruned grid for atomic number  79.
 Defaulting to unpruned grid for atomic number  79.
 Defaulting to unpruned grid for atomic number  79.
 Defaulting to unpruned grid for atomic number  79.
 Defaulting to unpruned grid for atomic number  79.
 Defaulting to unpruned grid for atomic number  79.
 Defaulting to unpruned grid for atomic number  79.
 Defaulting to unpruned grid for atomic number  79.
 Defaulting to unpruned grid for atomic number  79.
 Defaulting to unpruned grid for atomic number  79.
 Defaulting to unpruned grid for atomic number  79.
 Defaulting to unpruned grid for atomic number  79.
 Defaulting to unpruned grid for atomic number  79.
 EnCoef did     5 forward-backward iterations
 SCF Done:  E(RB3LYP) =  -7391.47535050     A.U. after   20 cycles
            NFock= 20  Conv=0.80D-08     -V/T= 2.0131

 **********************************************************************

            Population analysis using the SCF density.

 **********************************************************************

 Orbital symmetries:
       Occupied  (A) (A) (A) (A) (A) (A) (A) (A) (A) (A) (A) (A)
                 (A) (A) (A) (A) (A) (A) (A) (A) (A) (A) (A) (A)
                 (A) (A) (A) (A) (A) (A) (A) (A) (A) (A) (A) (A)
                 (A) (A) (A) (A) (A) (A) (A) (A) (A) (A) (A) (A)
                 (A) (A) (A) (A) (A) (A) (A) (A) (A) (A) (A) (A)
                 (A) (A) (A) (A) (A) (A) (A) (A) (A) (A) (A) (A)
                 (A) (A) (A) (A) (A) (A) (A) (A) (A) (A) (A) (A)
                 (A) (A) (A) (A) (A) (A) (A) (A) (A) (A) (A) (A)
                 (A) (A) (A) (A) (A) (A) (A) (A) (A) (A) (A) (A)
                 (A) (A) (A) (A) (A) (A) (A) (A) (A) (A) (A) (A)
                 (A) (A) (A) (A) (A) (A) (A) (A) (A) (A) (A) (A)
                 (A) (A) (A) (A) (A) (A) (A) (A) (A) (A) (A) (A)
                 (A) (A) (A) (A) (A) (A) (A) (A) (A) (A) (A) (A)
                 (A) (A) (A) (A) (A) (A) (A) (A) (A) (A) (A) (A)
                 (A) (A) (A) (A) (A) (A) (A) (A) (A) (A) (A) (A)
       Virtual   (A) (A) (A) (A) (A) (A) (A) (A) (A) (A) (A) (A)
                 (A) (A) (A) (A) (A) (A) (A) (A) (A) (A) (A) (A)
                 (A) (A) (A) (A) (A) (A) (A) (A) (A) (A) (A) (A)
                 (A) (A) (A) (A) (A) (A) (A) (A) (A) (A) (A) (A)
                 (A) (A) (A) (A) (A) (A) (A) (A) (A) (A) (A) (A)
                 (A) (A) (A) (A) (A) (A) (A) (A) (A) (A) (A) (A)
                 (A) (A) (A) (A) (A) (A) (A) (A) (A) (A) (A) (A)
                 (A) (A) (A) (A) (A) (A) (A) (A) (A) (A) (A) (A)
                 (A) (A) (A) (A) (A) (A) (A) (A) (A) (A) (A) (A)
                 (A) (A) (A) (A) (A) (A) (A) (A) (A) (A) (A) (A)
                 (A) (A) (A) (A) (A) (A) (A) (A) (A) (A) (A) (A)
                 (A) (A) (A) (A) (A) (A) (A) (A) (A) (A) (A) (A)
                 (A) (A) (A) (A) (A) (A) (A) (A) (A) (A) (A) (A)
                 (A) (A) (A) (A) (A) (A) (A) (A) (A) (A) (A) (A)
                 (A) (A) (A) (A) (A) (A) (A) (A) (A) (A) (A) (A)
                 (A) (A) (A) (A) (A) (A) (A) (A) (A) (A) (A) (A)
                 (A) (A) (A) (A) (A) (A) (A) (A) (A) (A) (A) (A)
                 (A) (A) (A) (A) (A) (A) (A) (A) (A) (A) (A) (A)
                 (A) (A) (A) (A) (A) (A) (A) (A) (A) (A) (A) (A)
                 (A) (A) (A) (A) (A) (A) (A) (A) (A) (A) (A) (A)
                 (A) (A) (A) (A) (A) (A) (A) (A) (A) (A) (A) (A)
                 (A) (A) (A) (A) (A) (A) (A) (A) (A) (A) (A) (A)
                 (A) (A) (A) (A) (A) (A) (A) (A) (A) (A) (A) (A)
                 (A) (A) (A) (A) (A) (A) (A) (A) (A) (A) (A) (A)
                 (A) (A) (A) (A) (A) (A) (A) (A) (A) (A) (A) (A)
                 (A) (A) (A) (A) (A) (A) (A) (A) (A) (A) (A) (A)
                 (A) (A) (A) (A) (A) (A) (A) (A) (A) (A) (A) (A)
                 (A) (A) (A) (A) (A) (A) (A) (A) (A) (A) (A) (A)
                 (A) (A) (A) (A) (A) (A) (A) (A) (A) (A) (A) (A)
                 (A) (A) (A) (A) (A) (A) (A) (A) (A) (A) (A) (A)
                 (A) (A) (A) (A) (A) (A) (A) (A) (A) (A) (A) (A)
                 (A) (A) (A) (A) (A) (A) (A) (A) (A) (A) (A) (A)
                 (A) (A) (A) (A) (A) (A) (A) (A) (A) (A) (A) (A)
                 (A) (A) (A) (A) (A) (A) (A) (A) (A) (A) (A) (A)
                 (A) (A) (A) (A) (A) (A) (A) (A) (A) (A) (A) (A)
                 (A) (A) (A) (A) (A) (A) (A) (A) (A) (A) (A) (A)
                 (A) (A) (A) (A) (A) (A) (A) (A) (A) (A) (A) (A)
                 (A) (A) (A) (A) (A) (A) (A) (A) (A) (A) (A) (A)
                 (A) (A) (A) (A)
 The electronic state is 1-A.
 Alpha  occ. eigenvalues -- -482.63771-453.55474 -88.88520 -77.14060 -61.72303
 Alpha  occ. eigenvalues --  -57.27412 -56.29173 -56.28903 -56.28894 -52.04976
 Alpha  occ. eigenvalues --  -52.04888 -52.04603 -19.17531 -19.14228 -19.13646
 Alpha  occ. eigenvalues --  -19.13156 -19.13029 -19.11408 -19.11159 -14.38921
 Alpha  occ. eigenvalues --  -14.37647 -14.37198 -14.35586 -14.31208 -10.31991
 Alpha  occ. eigenvalues --  -10.31238 -10.30559 -10.29850 -10.28938 -10.26886
 Alpha  occ. eigenvalues --  -10.25739 -10.24641 -10.24220 -10.23085 -10.22585
 Alpha  occ. eigenvalues --  -10.22422 -10.22372 -10.21700 -10.21351 -10.21221
 Alpha  occ. eigenvalues --  -10.21163 -10.20489 -10.20322  -8.49332  -7.95637
 Alpha  occ. eigenvalues --   -7.62446  -6.62012  -6.50744  -6.49813  -6.49780
 Alpha  occ. eigenvalues --   -5.92061  -5.91749  -5.91090  -5.75466  -5.75192
 Alpha  occ. eigenvalues --   -5.74138  -4.78137  -4.78112  -4.77987  -4.23906
 Alpha  occ. eigenvalues --   -2.62727  -2.62481  -2.62456  -2.61717  -2.61716
 Alpha  occ. eigenvalues --   -2.37870  -2.37342  -2.35679  -2.11683  -2.11656
 Alpha  occ. eigenvalues --   -2.10790  -2.10570  -2.10356  -1.09339  -1.06301
 Alpha  occ. eigenvalues --   -1.05432  -1.05085  -1.03422  -1.00755  -0.99631
 Alpha  occ. eigenvalues --   -0.95564  -0.94044  -0.93774  -0.92481  -0.88864
 Alpha  occ. eigenvalues --   -0.83614  -0.80748  -0.79270  -0.79045  -0.78431
 Alpha  occ. eigenvalues --   -0.75787  -0.74194  -0.72404  -0.72275  -0.70946
 Alpha  occ. eigenvalues --   -0.70185  -0.69762  -0.66617  -0.64809  -0.64582
 Alpha  occ. eigenvalues --   -0.63712  -0.62439  -0.61852  -0.60821  -0.60066
 Alpha  occ. eigenvalues --   -0.58203  -0.57865  -0.57486  -0.54944  -0.53052
 Alpha  occ. eigenvalues --   -0.52298  -0.51575  -0.50525  -0.50368  -0.50105
 Alpha  occ. eigenvalues --   -0.50078  -0.49852  -0.49648  -0.48352  -0.48010
 Alpha  occ. eigenvalues --   -0.47842  -0.47114  -0.46284  -0.45648  -0.45492
 Alpha  occ. eigenvalues --   -0.45319  -0.45144  -0.44677  -0.44451  -0.44222
 Alpha  occ. eigenvalues --   -0.43824  -0.43734  -0.43637  -0.42705  -0.42539
 Alpha  occ. eigenvalues --   -0.42288  -0.41891  -0.41411  -0.41251  -0.40890
 Alpha  occ. eigenvalues --   -0.40662  -0.40455  -0.40091  -0.39680  -0.39592
 Alpha  occ. eigenvalues --   -0.39521  -0.39129  -0.39057  -0.38585  -0.38344
 Alpha  occ. eigenvalues --   -0.38227  -0.37774  -0.37646  -0.37518  -0.37225
 Alpha  occ. eigenvalues --   -0.37050  -0.35270  -0.34970  -0.34835  -0.33301
 Alpha  occ. eigenvalues --   -0.32452  -0.31268  -0.31211  -0.30035  -0.29665
 Alpha  occ. eigenvalues --   -0.28938  -0.28504  -0.28211  -0.27545  -0.27280
 Alpha  occ. eigenvalues --   -0.26802  -0.26487  -0.26230  -0.25665  -0.25292
 Alpha  occ. eigenvalues --   -0.25176  -0.24941  -0.24461  -0.23905  -0.20983
 Alpha virt. eigenvalues --   -0.14089  -0.03707  -0.02454  -0.02011  -0.00920
 Alpha virt. eigenvalues --    0.00689   0.00819   0.01128   0.01582   0.02453
 Alpha virt. eigenvalues --    0.02632   0.03204   0.04356   0.05112   0.06134
 Alpha virt. eigenvalues --    0.07009   0.08095   0.08304   0.08361   0.08869
 Alpha virt. eigenvalues --    0.09460   0.09730   0.09998   0.10528   0.11440
 Alpha virt. eigenvalues --    0.11564   0.12153   0.12476   0.12666   0.12866
 Alpha virt. eigenvalues --    0.13237   0.13320   0.13446   0.13899   0.14319
 Alpha virt. eigenvalues --    0.14415   0.14734   0.15129   0.15542   0.15701
 Alpha virt. eigenvalues --    0.15803   0.16289   0.16537   0.16777   0.17183
 Alpha virt. eigenvalues --    0.17638   0.17719   0.17957   0.18114   0.18650
 Alpha virt. eigenvalues --    0.18793   0.19030   0.19230   0.19823   0.20144
 Alpha virt. eigenvalues --    0.20679   0.21110   0.21160   0.21646   0.22328
 Alpha virt. eigenvalues --    0.22751   0.22991   0.23361   0.24336   0.24562
 Alpha virt. eigenvalues --    0.25499   0.25942   0.26083   0.26402   0.26847
 Alpha virt. eigenvalues --    0.27913   0.30555   0.31081   0.31562   0.32026
 Alpha virt. eigenvalues --    0.32590   0.33490   0.34009   0.35266   0.35973
 Alpha virt. eigenvalues --    0.36221   0.36815   0.37172   0.37742   0.38375
 Alpha virt. eigenvalues --    0.39175   0.39550   0.40084   0.41061   0.42082
 Alpha virt. eigenvalues --    0.42832   0.43243   0.44204   0.44518   0.45600
 Alpha virt. eigenvalues --    0.46327   0.46862   0.47289   0.48220   0.48574
 Alpha virt. eigenvalues --    0.49447   0.50013   0.50345   0.51518   0.51716
 Alpha virt. eigenvalues --    0.51974   0.52410   0.53174   0.53568   0.53686
 Alpha virt. eigenvalues --    0.54451   0.54489   0.55406   0.55589   0.55864
 Alpha virt. eigenvalues --    0.56273   0.56438   0.56687   0.57404   0.57689
 Alpha virt. eigenvalues --    0.58032   0.58506   0.58823   0.59214   0.59650
 Alpha virt. eigenvalues --    0.60016   0.60386   0.61000   0.62036   0.62131
 Alpha virt. eigenvalues --    0.62550   0.63247   0.63669   0.64055   0.64258
 Alpha virt. eigenvalues --    0.64767   0.64948   0.65667   0.66169   0.66427
 Alpha virt. eigenvalues --    0.66678   0.67145   0.67270   0.67988   0.68317
 Alpha virt. eigenvalues --    0.68981   0.69352   0.69818   0.70802   0.71005
 Alpha virt. eigenvalues --    0.71847   0.72452   0.72701   0.73221   0.73640
 Alpha virt. eigenvalues --    0.74197   0.75164   0.75860   0.76120   0.76821
 Alpha virt. eigenvalues --    0.77112   0.77430   0.77844   0.78407   0.79773
 Alpha virt. eigenvalues --    0.79850   0.80246   0.80679   0.80835   0.81118
 Alpha virt. eigenvalues --    0.82028   0.82236   0.82442   0.82935   0.83158
 Alpha virt. eigenvalues --    0.83648   0.83933   0.84421   0.84773   0.85287
 Alpha virt. eigenvalues --    0.85505   0.85843   0.86326   0.86704   0.86936
 Alpha virt. eigenvalues --    0.87230   0.87366   0.87654   0.87973   0.88384
 Alpha virt. eigenvalues --    0.88616   0.89008   0.89208   0.89526   0.89770
 Alpha virt. eigenvalues --    0.89903   0.90654   0.90788   0.91157   0.91450
 Alpha virt. eigenvalues --    0.91883   0.92040   0.92380   0.92921   0.93579
 Alpha virt. eigenvalues --    0.93655   0.94089   0.94426   0.94714   0.94954
 Alpha virt. eigenvalues --    0.95171   0.95592   0.96358   0.96681   0.97347
 Alpha virt. eigenvalues --    0.97829   0.97911   0.98483   0.98927   0.99177
 Alpha virt. eigenvalues --    1.00054   1.00263   1.00585   1.00765   1.01204
 Alpha virt. eigenvalues --    1.01322   1.01760   1.02564   1.03467   1.03642
 Alpha virt. eigenvalues --    1.04627   1.05574   1.06981   1.08323   1.08581
 Alpha virt. eigenvalues --    1.09237   1.09959   1.10540   1.11096   1.12146
 Alpha virt. eigenvalues --    1.13025   1.13697   1.14409   1.15474   1.16709
 Alpha virt. eigenvalues --    1.16962   1.20219   1.20592   1.21676   1.21968
 Alpha virt. eigenvalues --    1.22913   1.24530   1.25408   1.26172   1.26982
 Alpha virt. eigenvalues --    1.27575   1.29784   1.31403   1.32090   1.32479
 Alpha virt. eigenvalues --    1.33199   1.34817   1.36571   1.37234   1.37754
 Alpha virt. eigenvalues --    1.38840   1.40696   1.41394   1.42398   1.43120
 Alpha virt. eigenvalues --    1.45338   1.45504   1.46166   1.47051   1.47518
 Alpha virt. eigenvalues --    1.47782   1.49182   1.49721   1.50877   1.52173
 Alpha virt. eigenvalues --    1.52968   1.53324   1.53930   1.55191   1.56359
 Alpha virt. eigenvalues --    1.56861   1.58046   1.58761   1.59927   1.60782
 Alpha virt. eigenvalues --    1.62362   1.62716   1.63477   1.64954   1.66455
 Alpha virt. eigenvalues --    1.67332   1.67946   1.68303   1.69170   1.71124
 Alpha virt. eigenvalues --    1.71495   1.72064   1.73614   1.74010   1.75178
 Alpha virt. eigenvalues --    1.75712   1.76026   1.78078   1.78529   1.79481
 Alpha virt. eigenvalues --    1.80015   1.80293   1.80444   1.81707   1.82243
 Alpha virt. eigenvalues --    1.82988   1.83347   1.83432   1.84553   1.84857
 Alpha virt. eigenvalues --    1.85744   1.86787   1.87086   1.87631   1.88269
 Alpha virt. eigenvalues --    1.88325   1.89193   1.90239   1.90414   1.91285
 Alpha virt. eigenvalues --    1.92080   1.92497   1.92863   1.92889   1.93186
 Alpha virt. eigenvalues --    1.93742   1.93835   1.94187   1.94230   1.94649
 Alpha virt. eigenvalues --    1.94921   1.95520   1.96114   1.96224   1.96308
 Alpha virt. eigenvalues --    1.96622   1.97015   1.97378   1.98360   1.98568
 Alpha virt. eigenvalues --    1.99359   2.00037   2.00522   2.00696   2.01134
 Alpha virt. eigenvalues --    2.01729   2.02083   2.02694   2.03470   2.03793
 Alpha virt. eigenvalues --    2.04478   2.05587   2.06180   2.06786   2.07369
 Alpha virt. eigenvalues --    2.08432   2.08945   2.10502   2.10922   2.11609
 Alpha virt. eigenvalues --    2.12444   2.13260   2.13813   2.13992   2.15295
 Alpha virt. eigenvalues --    2.16361   2.17276   2.17898   2.18761   2.19056
 Alpha virt. eigenvalues --    2.22074   2.22333   2.23246   2.23727   2.24992
 Alpha virt. eigenvalues --    2.25736   2.26532   2.26627   2.27100   2.27552
 Alpha virt. eigenvalues --    2.27974   2.29301   2.29681   2.29928   2.30320
 Alpha virt. eigenvalues --    2.31043   2.31299   2.31756   2.31972   2.33242
 Alpha virt. eigenvalues --    2.34436   2.35705   2.37736   2.38562   2.39521
 Alpha virt. eigenvalues --    2.40479   2.42137   2.43011   2.43881   2.45235
 Alpha virt. eigenvalues --    2.46466   2.48817   2.50419   2.51536   2.53159
 Alpha virt. eigenvalues --    2.53874   2.55512   2.56234   2.56923   2.57780
 Alpha virt. eigenvalues --    2.58178   2.58686   2.59901   2.60084   2.60722
 Alpha virt. eigenvalues --    2.61305   2.62022   2.63727   2.65559   2.65891
 Alpha virt. eigenvalues --    2.67138   2.67436   2.68056   2.71774   2.73088
 Alpha virt. eigenvalues --    2.77477   2.82063   2.83226   2.86131   2.89148
 Alpha virt. eigenvalues --    2.90861   2.92305   2.93689   2.94445   2.98023
 Alpha virt. eigenvalues --    2.99301   3.00825   3.01356   3.04728   3.09297
 Alpha virt. eigenvalues --    3.10186   3.12247   3.14057   3.14524   7.98560
 Alpha virt. eigenvalues --    8.66415  15.54485  15.61081  15.66013  43.09599
          Condensed to atoms (all electrons):
 Mulliken charges:
               1
     1  Au  -0.221028
     2  P    0.644533
     3  C   -0.461111
     4  H    0.224730
     5  H    0.177973
     6  C   -0.457943
     7  H    0.177529
     8  H    0.220171
     9  C   -0.469868
    10  H    0.200995
    11  H    0.210005
    12  C   -0.478034
    13  H    0.207093
    14  H    0.161360
    15  H    0.171312
    16  C   -0.458653
    17  H    0.172268
    18  H    0.162984
    19  H    0.160829
    20  C   -0.474743
    21  H    0.203979
    22  H    0.174533
    23  H    0.157672
    24  N   -0.703336
    25  C   -0.108521
    26  C    0.590394
    27  O   -0.522411
    28  C    0.002344
    29  O   -0.658319
    30  N   -0.591587
    31  C   -0.235746
    32  C    0.562862
    33  O   -0.482856
    34  N   -0.580638
    35  C   -0.073796
    36  C    0.570700
    37  O   -0.472897
    38  C   -0.421030
    39  S   -0.049953
    40  N   -0.559072
    41  C   -0.088562
    42  C   -0.351921
    43  C    0.550117
    44  O   -0.465715
    45  N   -0.552073
    46  C   -0.252923
    47  C    0.548954
    48  O   -0.413025
    49  O   -0.617414
    50  H    0.135138
    51  H    0.151635
    52  H    0.430269
    53  H    0.138596
    54  H    0.318516
    55  H    0.298627
    56  H    0.194843
    57  H    0.177565
    58  H    0.363914
    59  H    0.191918
    60  H    0.230951
    61  H    0.181322
    62  H    0.360363
    63  H    0.204199
    64  H    0.218039
    65  H    0.196950
    66  H    0.348741
    67  H    0.187233
    68  H    0.209923
    69  H    0.349529
    70  H    0.456480
    71  Se  -0.112428
    72  Br  -0.262484
 Sum of Mulliken charges =   0.00000
 Mulliken charges with hydrogens summed into heavy atoms:
               1
     1  Au  -0.221028
     2  P    0.644533
     3  C   -0.058408
     6  C   -0.060244
     9  C   -0.058868
    12  C    0.061731
    16  C    0.037428
    20  C    0.061440
    24  N   -0.086193
    25  C    0.030075
    26  C    0.590394
    27  O   -0.522411
    28  C    0.289117
    29  O   -0.228049
    30  N   -0.227673
    31  C    0.136661
    32  C    0.562862
    33  O   -0.482856
    34  N   -0.220275
    35  C    0.107525
    36  C    0.570700
    37  O   -0.472897
    38  C    0.001839
    39  S   -0.049953
    40  N   -0.210331
    41  C    0.108388
    42  C    0.070317
    43  C    0.550117
    44  O   -0.465715
    45  N   -0.202544
    46  C    0.144233
    47  C    0.548954
    48  O   -0.413025
    49  O   -0.160934
    71  Se  -0.112428
    72  Br  -0.262484
 Electronic spatial extent (au):  <R**2>=          32040.2780
 Charge=              0.0000 electrons
 Dipole moment (field-independent basis, Debye):
    X=              6.7022    Y=              7.2943    Z=             -3.9353  Tot=             10.6589
 Quadrupole moment (field-independent basis, Debye-Ang):
   XX=           -276.4600   YY=           -269.5477   ZZ=           -276.8880
   XY=             34.1515   XZ=             41.2338   YZ=             -3.9336
 Traceless Quadrupole moment (field-independent basis, Debye-Ang):
   XX=             -2.1614   YY=              4.7509   ZZ=             -2.5894
   XY=             34.1515   XZ=             41.2338   YZ=             -3.9336
 Octapole moment (field-independent basis, Debye-Ang**2):
  XXX=            686.8449  YYY=           -138.5856  ZZZ=            -83.2765  XYY=            193.8982
  XXY=             87.2825  XXZ=           -147.8823  XZZ=            198.4391  YZZ=             26.1351
  YYZ=            -13.3956  XYZ=             61.0220
 Hexadecapole moment (field-independent basis, Debye-Ang**3):
 XXXX=         -29623.9174 YYYY=          -7176.4650 ZZZZ=          -3409.0501 XXXY=            659.5449
 XXXZ=           1069.4645 YYYX=            256.0969 YYYZ=             33.3970 ZZZX=             79.6201
 ZZZY=             36.6265 XXYY=          -6274.4611 XXZZ=          -5395.2821 YYZZ=          -1849.1486
 XXYZ=           -180.9425 YYXZ=             53.7390 ZZXY=           -175.9180
 N-N= 6.667523066309D+03 E-N=-3.088069317662D+04  KE= 7.295620638109D+03
   1 Symmetry operations used in ECPInt.
 ECPInt:  NShTT=   29890 NPrTT=  178156 LenC2=   21215 LenP2D=   65528.
 LDataN:  DoStor=T MaxTD1= 8 Len=  415
 Calling FoFJK, ICntrl=      2127 FMM=T ISym2X=0 I1Cent= 0 IOpClX= 0 NMat=1 NMatS=1 NMatT=0.
 Defaulting to unpruned grid for atomic number  79.
 Defaulting to unpruned grid for atomic number  79.
 Defaulting to unpruned grid for atomic number  79.
 Defaulting to unpruned grid for atomic number  79.
 Defaulting to unpruned grid for atomic number  79.
 Defaulting to unpruned grid for atomic number  79.
 Defaulting to unpruned grid for atomic number  79.
 Defaulting to unpruned grid for atomic number  79.
 Defaulting to unpruned grid for atomic number  79.
 Defaulting to unpruned grid for atomic number  79.
 Defaulting to unpruned grid for atomic number  79.
 Defaulting to unpruned grid for atomic number  79.
 Defaulting to unpruned grid for atomic number  79.
 Defaulting to unpruned grid for atomic number  79.
 Defaulting to unpruned grid for atomic number  79.
 ***** Axes restored to original set *****
 -------------------------------------------------------------------
 Center     Atomic                   Forces (Hartrees/Bohr)
 Number     Number              X              Y              Z
 -------------------------------------------------------------------
      1       79          -0.013729773    0.000542999   -0.006280491
      2       15          -0.003341131   -0.000375322   -0.002654128
      3        6          -0.006152339    0.003445876   -0.002572510
      4        1           0.002128141   -0.004319567   -0.000508307
      5        1           0.001191899    0.001709830    0.001474800
      6        6           0.004453266   -0.007764111   -0.001975062
      7        1           0.000675723    0.001672606    0.000582966
      8        1          -0.002743785    0.004612000   -0.000490193
      9        6           0.001499484    0.001550585    0.000416267
     10        1           0.001447106    0.000148195   -0.000160488
     11        1           0.001085213    0.000321269    0.001063464
     12        6           0.004852835   -0.002147005    0.003371322
     13        1          -0.001771331   -0.002172174   -0.001690415
[...]
 0222,-0.00000023,-0.00000193,0.00000105,-0.00000348,-0.00000160,-0.000
 00035,-0.00000106,-0.00000146,0.00000516,0.00000223,0.00000170,-0.0000
 0079,0.00000406,-0.00000441,0.00000111,-0.00000706,-0.00000073,-0.0000
 0329,0.00000497,0.00032841,-0.00046938,-0.00011819,0.00079267,0.000266
 66,0.00058785,-0.00250563,0.00587738,0.00054250,0.00262218,-0.00426282
 ,-0.01120478,0.00014306,0.00013985,0.00031245,-0.00013182,0.00003678,-
 0.00023329,-0.00064764,-0.00023767,-0.00074203,0.00040296,-0.00017952,
 -0.00045707,0.00044409,0.00016266,0.00033549,-0.00018311,-0.00014506,-
 0.00020270,-0.00027827,-0.00002829,-0.00006462,0.00004609,-0.00005347,
 -0.00002128,0.00022481,-0.00000128,0.00020592,-0.00016788,0.00006143,-
 0.00011538,0.00004697,0.00004046,-0.00000075,-0.00004781,0.00001461,-0
 .00000594,-0.00006716,0.00004953,-0.00015086,0.00000350,-0.00006302,-0
 .00001547,-0.00000002,0.00001273,-0.00000395,0.00001741,0.00033978,-0.
 00015092,-0.00011896,-0.00016589,-0.00011317,-0.00111694,0.00017025,0.
 00074662,-0.00287097,-0.00156544,-0.00220074,-0.02198723,0.02641052,0.
 01841935,0.00462251,-0.00265989,-0.00331791,0.07345467,-0.09865410,-0.
 08989926,-0.00001695,-0.00000667,-0.00002574,0.00004372,0.00001656,0.0
 0001220,-0.00002018,0.00006008,0.00011541,0.00003724,-0.00001724,0.000
 02368,-0.00016052,0.00015620,0.00006363,-0.00008159,0.00006345,-0.0000
 4483,-0.00009498,-0.00013166,0.00011158,-0.00000230,-0.00001108,0.0000
 1888,0.00261387,0.00145569,-0.00217705,-0.00000743,-0.00000564,-0.0000
 0795,-0.00001351,-0.00001367,0.00000501,0.00000032,0.00000238,-0.00002
 047,0.00001026,0.00002334,0.00001137,-0.00000657,0.00000463,0.00000188
 ,0.00000005,-0.00000042,0.00000077,-0.00000153,0.00000300,0.00002221,0
 .00000844,0.00001083,0.00000208,0.00024225,-0.00019378,-0.00022539,-0.
 00017305,-0.00003175,0.00032639,-0.00012281,0.00000548,0.00011358,-0.0
 5529077,0.07351986,0.08953227,-0.02359016,-0.01595127,-0.01636024,0.00
 433507,-0.00231723,-0.00053945,0.00013747,0.00006295,-0.00008705,-0.00
 015216,-0.00003892,-0.00001669,-0.00003352,0.00011012,0.00007307,-0.00
 065995,-0.00086560,-0.00020676,0.00001678,0.00031388,-0.00030969,-0.00
 002648,0.00000807,-0.00015576,-0.00143434,-0.00069077,-0.00139942,-0.0
 0004021,0.00010288,0.00000080,-0.00004059,0.00007547,-0.00000251,-0.00
 005571,0.00002444,-0.00006553,0.00002082,-0.00003111,0.00004295,0.0000
 3062,0.00004298,0.00000117,-0.00003042,-0.00001981,0.00004546,0.000673
 60,-0.00039991,0.00037936,-0.00014671,-0.00018854,-0.00018872,-0.00002
 078,0.00002950,-0.00003403,-0.00005088,0.00000331,-0.00000058,-0.00014
 487,-0.00007311,0.00004878,0.00000653,-0.00001611,0.00004899,0.0000399
 6,0.00002547,-0.00003299,0.00000257,0.00000889,0.00003119,-0.00001068,
 0.00002703,0.00000127,0.00000825,-0.00001062,0.00000992,-0.00003079,-0
 .00006603,0.00005538,-0.00002148,0.00013690,-0.00005806,-0.00001458,-0
 .00001173,-0.00001189,0.00001891,0.00003393,0.00000686,0.00001595,0.00
 002710,-0.00004876,-0.00001793,-0.00003679,0.00002943,-0.00009025,0.00
 001156,-0.00000291,0.00006132,0.00001474,0.00000066,0.00022621,0.00006
 364,-0.00009570,0.00010950,-0.00042846,0.00007464,0.00051915,-0.000456
 18,0.00056807,0.00030878,0.00030013,-0.00016884,-0.00047103,0.00107384
 ,-0.00146460,0.00152213,0.00096019,0.00043210,-0.00441540,-0.00070328,
 0.00557665,-0.00934158,-0.00570677,0.01989537,-0.03356402,-0.01373310,
 0.02048312,-0.00452290,0.00069880,-0.00332467,0.00149196,-0.00009109,0
 .00034683,-0.00003758,-0.00012200,0.00158051,0.00032464,0.00014499,0.0
 0022470,0.00034026,-0.00019848,0.00003338,-0.00016879,0.00010770,0.000
 01392,-0.00027184,0.00018235,-0.00007933,-0.00000147,0.00000828,0.0000
 0342,0.00000468,-0.00000140,-0.00000208,-0.00001969,-0.00002046,0.0000
 0375,-0.00000285,0.00000734,-0.00000555,0.00000851,-0.00000878,-0.0000
 0247,0.00000340,-0.00000742,0.00000252,0.00000334,0.00001316,0.0000020
 7,0.00001103,-0.00001069,0.00001252,0.00003569,-0.00004284,0.00003070,
 0.00005004,0.00079361,0.00042021,-0.00212129,0.00221880,-0.00019146,0.
 00005382,0.00005336,-0.00007590,-0.00013722,-0.00002724,0.00005918,-0.
 00200673,-0.00236314,0.00520424,0.00372931,0.00229914,-0.00258599,0.00
 015088,-0.00009813,-0.00027749,-0.00134824,0.00002992,0.00033447,-0.00
 005973,-0.00002510,-0.00000918,0.00007274,0.00002549,0.00001419,-0.000
 19658,-0.00031207,0.00002697,0.00010040,-0.00014509,0.00000208,0.07581
 316,-0.01694155,-0.04407437,-0.03127205,-0.00103646,0.00022609,0.00150
 404,-0.00001295,-0.00125708,-0.00170936,-0.00003787,-0.00005268,0.0000
 1606,-0.00067796,0.00005710,0.00034208,-0.00074864,-0.00126514,-0.0003
 0105,0.00011551,0.00039341,-0.00040379,0.00002052,-0.00002373,-0.00008
 974,-0.00111191,-0.00016762,-0.00107992,0.00006393,-0.00005928,-0.0001
 0582,-0.00007278,-0.00005431,0.00004344,0.00000141,0.00010120,-0.00023
 872,0.00004167,0.00003164,0.00008229,0.00002112,-0.00001824,0.00000200
 ,-0.00001700,-0.00002343,0.00010257,0.00069866,-0.00031986,0.00043886,
 -0.00014049,-0.00016453,-0.00018790,-0.00002664,0.00005177,-0.00000558
 ,-0.00002290,0.00006494,0.00000463,-0.00017355,0.00003916,0.00001209,0
 .00004444,-0.00002814,0.00001101,0.00010077,0.00002233,-0.00003475,0.0
 0001924,-0.00000663,0.00002243,-0.00002316,0.00002735,0.00000748,0.000
 01633,-0.00000560,0.00000218,0.00006770,-0.00004590,-0.00005413,-0.000
 04910,0.00003850,0.00002381,0.00000217,-0.00001667,-0.00001530,-0.0000
 0518,0.00003119,0.00003469,-0.00006213,0.00004032,0.00003529,0.0000113
 7,-0.00000439,-0.00000871,0.00018389,-0.00016017,-0.00016051,-0.000042
 34,0.00012583,0.00011231,-0.00000515,0.00011479,-0.00016752,-0.0006411
 9,-0.00007759,-0.00012024,0.00040209,-0.00032399,-0.00131382,-0.000337
 64,0.00044869,0.00045505,0.00112153,-0.00373627,-0.00022512,0.00219465
 ,-0.00547303,0.00058151,0.00436703,-0.00059784,-0.00280845,-0.00108090
 ,0.00028210,0.00126687,-0.01591463,-0.03689663,0.02413632,-0.00003936,
 -0.00007569,-0.00176493,0.00037504,0.00018991,0.00026056,-0.00009912,0
 .00005342,0.00034977,0.00007443,0.00002875,0.00007649,0.00014123,-0.00
 012021,-0.00004982,-0.00007229,0.00007266,0.00005632,-0.00011146,0.000
 07365,-0.00000067,-0.00000250,0.00001003,0.00000281,-0.00000128,-0.000
 00230,0.00000108,0.00001019,-0.00002508,-0.00004218,0.00000142,-0.0000
 0203,0.00000204,0.00000909,-0.00001124,-0.00000492,0.00000738,-0.00000
 758,0.00000162,-0.00000966,0.00000529,0.00000380,0.00001375,-0.0000043
 8,0.00001882,0.00002376,-0.00002220,-0.00000701,-0.00037658,-0.0005509
 5,-0.00047624,0.00051933,-0.00057351,0.00033417,-0.00009051,-0.0000148
 5,0.00001482,0.00014298,-0.00002666,0.00001983,-0.00904428,-0.00734536
 ,0.01936232,-0.00071524,-0.00211952,0.00186714,0.00021159,-0.00008669,
 -0.00021118,0.00102751,0.00036984,-0.00022195,-0.00001475,-0.00001081,
 -0.00001155,0.00002677,-0.00000431,-0.00001247,-0.00002966,-0.00006183
 ,-0.00001615,0.00004468,-0.00005594,-0.00000667,0.03790720,0.10168595,
 -0.00930898,-0.01902091,-0.03818031,-0.00327129,-0.00578504,0.00623811
 ,-0.00014175,-0.00169206,-0.00247928,-0.00014360,-0.00004770,-0.000017
 47,-0.00105479,0.00008597,0.00037119,0.00016221,0.00026733,0.00022369,
 0.00006259,0.00009588,0.00008601,-0.00001393,-0.00001682,-0.00020515,-
 0.00163052,-0.00073552,-0.00196000,0.00002977,-0.00005579,-0.00007737,
 -0.00013658,0.00015783,0.00001864,0.00006505,0.00008293,-0.00044159,0.
 00012693,0.00001711,0.00009608,0.00004366,0.00002349,0.00003014,-0.000
 04087,-0.00002012,0.00009486,0.00092265,-0.00056424,0.00048679,-0.0001
 7241,-0.00026383,-0.00027498,-0.00002132,0.00002640,-0.00005189,-0.000
 04087,0.00007213,0.00001396,-0.00008430,0.00011383,-0.00012917,0.00007
 421,-0.00003325,-0.00009507,0.00009612,0.00001779,-0.00003654,-0.00003
 044,0.00000096,0.00003452,-0.00000956,0.00000951,0.00001006,0.00000633
 ,-0.00000134,-0.00000270,0.00011165,0.00000600,-0.00012103,-0.00003150
 ,-0.00007474,0.00007968,-0.00000862,-0.00001088,-0.00001495,0.00000729
 ,0.00001602,0.00004320,-0.00008010,0.00003443,0.00007805,0.00004582,-0
 .00000308,-0.00004811,0.00031544,-0.00017449,-0.00006680,-0.00010543,0
 .00022434,0.00016522,-0.00048149,0.00012782,0.00019882,0.00070236,0.00
 016222,0.00018474,0.00053957,-0.00037280,0.00043839,-0.00047088,-0.000
 18477,0.00003239,-0.00128122,0.00152208,-0.00201584,0.00080313,-0.0010
 1192,0.00117979,0.00026507,0.00251269,-0.00128328,0.00894662,0.0010525
 7,-0.01280592,0.01619966,0.01441052,-0.07406054,0.00188366,-0.00054475
 ,0.00145432,0.00022371,-0.00002379,0.00031983,0.00021419,0.00008055,-0
 .00100508,-0.00024318,-0.00006336,-0.00019971,-0.00016669,0.00007247,-
 0.00013029,0.00009806,-0.00001846,0.00007795,0.00016181,-0.00010477,0.
 00010390,-0.00000035,0.00000396,0.00000239,-0.00000300,-0.00000006,0.0
 0000241,0.00001215,-0.00001998,-0.00005725,0.00000360,-0.00000847,0.00
 000529,0.00000115,-0.00000472,-0.00000424,0.00000464,-0.00000078,0.000
 00060,-0.00000640,-0.00000104,0.00000415,0.00000969,-0.00000920,0.0000
 1795,0.00002776,0.00000904,-0.00004477,-0.00042498,0.00058923,0.000211
 81,-0.00092687,0.00159440,0.00021930,0.00013666,0.00000226,-0.00007000
 ,-0.00011337,-0.00002428,-0.00001692,0.00027677,0.00195465,-0.00208539
 ,0.01270240,0.01434726,-0.01759343,-0.00005595,0.00027544,0.00028306,0
 .00137904,-0.00046787,-0.00075313,0.00005883,0.00002080,0.00000566,-0.
 00001930,0.00000588,-0.00003300,0.00015491,0.00015608,0.00002675,-0.00
 004049,0.00006708,-0.00000838,-0.02325184,-0.00797548,0.14623998,-0.04
 467145,0.03025674,-0.01748023,-0.00302824,0.00391078,0.00030746,-0.001
 06378,-0.00097308,-0.00011294,0.00126430,-0.00058020,0.00035978,0.0003
 4351,-0.00066960,-0.00003127,0.00060712,0.00046006,-0.00017067,0.00009
 181,-0.00017071,-0.00002867,-0.00035886,0.00008168,0.00048542,0.000612
 21,0.00050563,0.00035841,0.00013898,-0.00023828,-0.00030269,-0.0002507
 1,-0.00027508,0.00006492,0.00037928,-0.00020577,-0.00020908,-0.0002439
 7,0.00019020,-0.00004373,-0.00004885,-0.00025509,0.00014328,0.00006109
 ,0.00008696,-0.00000913,-0.00006790,-0.00009995,0.00001651,0.00003446,
 0.00001711,-0.00000680,0.00001615,0.00005693,0.00006817,0.00010900,0.0
 0012653,0.00003173,-0.00016962,-0.00015049,-0.00014024,0.00009914,-0.0
 0001942,-0.00007959,0.00009600,0.00004093,0.00003538,0.00013291,-0.000
 03061,-0.00007378,-0.00010409,0.00005347,0.00002049,0.00007186,0.00000
 623,-0.00001434,0.00041957,-0.00002284,-0.00038240,-0.00020427,-0.0001
 8703,0.00024182,0.00012575,-0.00004071,-0.00001617,-0.00016628,0.00005
 047,0.00012014,-0.00037016,0.00008287,0.00020537,0.00011262,0.00013576
 ,-0.00008872,0.00119724,-0.00075635,-0.00047501,-0.00048609,0.00055688
 ,0.00045689,-0.00118823,0.00006257,0.00027386,0.00023718,-0.00001661,-
 0.00027965,0.00019439,0.00087423,-0.00005407,-0.00032483,-0.00061912,-
 0.00002339,0.00150534,0.00075223,-0.00054308,-0.00099978,0.00457216,-0
 .00016937,-0.00001740,-0.00050851,0.00032442,-0.00018149,0.00022080,-0
 .00047979,-0.00086148,-0.00098039,0.00010444,0.00017616,-0.00000376,-0
 .00033660,0.00002725,-0.00010261,0.00025509,-0.00004040,-0.00009670,0.
 00010298,0.00000971,0.00005568,-0.00001596,-0.00003741,0.00000423,-0.0
 0016133,-0.00001080,-0.00000317,0.00011156,0.00003638,-0.00011454,0.00
 009974,-0.00001530,0.00002827,-0.00000151,-0.00002487,-0.00001023,0.00
 001109,0.00013782,-0.00005972,-0.00019536,0.00001695,-0.00002578,0.000
 02903,0.00002525,-0.00002891,-0.00001259,0.00002506,-0.00002033,-0.000
 00085,-0.00005718,-0.00001615,0.00000299,0.00003563,0.00000879,0.00003
 750,0.00004242,0.00004984,-0.00001320,-0.00068857,-0.00065974,-0.00008
 069,-0.00051933,-0.00037176,-0.00000893,-0.00019620,-0.00002645,0.0001
 1474,0.00058210,-0.00002987,-0.00029120,-0.00032716,0.00000653,-0.0000
 8319,-0.00005350,0.00004390,-0.00051282,-0.00009209,0.00000588,0.00006
 196,0.00044725,0.00067198,-0.00038879,-0.00001234,-0.00001866,0.000010
 62,0.00002041,0.00005309,-0.00002495,-0.00002686,0.00006301,-0.0000362
 3,-0.00001035,0.00012019,-0.00003171,-0.00494806,-0.00024151,-0.003062
 29,0.05243559,0.03385020,-0.03992748,0.01507931,0.00170361,-0.00800173
 ,-0.00170844,-0.00136901,-0.00096860,0.00036608,0.00041707,-0.00247570
 ,0.00002214,0.00064956,-0.00038612,-0.00008966,0.00058658,0.00024027,-
 0.00103077,0.00014029,-0.00034899,0.00035608,0.00054376,-0.00142312,-0
 .00054210,-0.00015542,-0.00026838,-0.00037017,-0.00003608,0.00002191,0
 .00017553,0.00010308,0.00014824,-0.00002954,0.00030196,-0.00032034,-0.
 00015610,-0.00005335,0.00000383,-0.00004670,0.00000108,0.00000816,0.00
 014812,-0.00004157,-0.00000495,-0.00006679,-0.00004942,-0.00014109,-0.
 00004773,0.00004211,-0.00004788,-0.00000319,-0.00001058,-0.00002663,-0
 .00003088,0.00000322,-0.00001173,-0.00001974,-0.00003553,-0.00030306,-
 0.00003430,0.00006911,-0.00005883,0.00005013,-0.00002579,-0.00002122,-
 0.00004815,0.00005801,0.00013263,0.00004744,0.00006421,-0.00002779,-0.
 00001379,-0.00004441,-0.00000628,0.00001162,-0.00028621,-0.00000089,0.
 00027038,0.00012961,0.00015959,-0.00017724,-0.00008198,0.00002306,0.00
 000942,0.00010876,-0.00002452,-0.00007895,0.00025300,-0.00004863,-0.00
 014992,-0.00007344,-0.00010272,0.00005717,-0.00078811,0.00051303,0.000
 33440,0.00032581,-0.00036181,-0.00029934,0.00085201,0.00003172,-0.0001
 2350,0.00002344,-0.00016574,0.00034824,-0.00000294,-0.00060302,0.00024
 468,0.00014801,0.00041685,-0.00007159,-0.00060012,-0.00027491,0.000187
 65,0.00176047,0.00068006,-0.00043491,-0.00016253,0.00046777,-0.0002216
 6,-0.00005805,-0.00033959,-0.00026886,-0.00070648,0.00050677,-0.000017
 74,0.00031829,0.00008401,0.00038096,-0.00030934,0.00004651,-0.00033202
 ,-0.00012934,0.00000093,-0.00009276,0.00001791,-0.00001281,0.00004761,
 0.00010084,-0.00005203,0.00012210,-0.00002947,0.00002218,-0.00007724,-
 0.00009478,0.00012437,-0.00009013,0.00000909,-0.00001592,0.00000141,0.
 00001741,0.00000633,-0.00000783,-0.00009326,0.00003414,0.00012938,-0.0
 0001156,0.00001885,-0.00002038,-0.00001418,0.00001660,0.00000787,-0.00
 001543,0.00001075,0.00000117,0.00004110,0.00001402,-0.00000210,-0.0000
 2301,-0.00001102,-0.00002441,-0.00002045,-0.00004446,0.00001574,0.0004
 8088,0.00026479,-0.00002043,0.00037235,-0.00018106,-0.00006416,0.00017
 655,0.00003662,-0.00011054,-0.00050175,0.00003797,0.00020282,0.0002399
 8,-0.00006152,-0.00016589,0.00055504,-0.00006860,-0.00041293,-0.000082
 03,0.00009199,0.00004496,-0.00030500,-0.00036692,0.00023728,-0.0000046
 3,0.00000519,-0.00000921,-0.00001044,-0.00004015,0.00002210,0.00003945
 ,-0.00004242,0.00000760,0.00003266,-0.00011765,0.00002239,-0.00272789,
 0.00138833,-0.00088263,-0.03558289,0.05214884,-0.01493516,0.01159038,-
 0.01699849,-0.00094133,0.00053775,-0.00141691,-0.00050551,-0.00016557,
 0.00093002,0.00038968,-0.00041365,-0.00028405,0.00017816,-0.00018473,-
 0.00000470,0.00008157,-0.00052000,-0.00187600,0.00039515,-0.00084319,0
 .00018090,0.00108580,-0.00136952,0.00006362,0.00014930,0.00015191,0.00
 052425,0.00003801,-0.00004887,-0.00021640,-0.00005974,-0.00026465,0.00
 002595,-0.00011344,-0.00022728,-0.00027694,0.00003577,0.00001980,0.000
 18700,-0.00001161,-0.00002433,0.00014944,0.00001001,-0.00001459,0.0000
 6128,0.00001175,-0.00007624,-0.00011612,0.00000372,-0.00001882,0.00004
 376,0.00000353,0.00005926,0.00011761,0.00002253,0.00003726,0.00001554,
 -0.00000788,-0.00044846,0.00029691,-0.00027839,0.00026091,0.00000450,-
 0.00004006,0.00001390,0.00004385,0.00021791,-0.00009405,-0.00012620,-0
 .00004713,0.00001676,0.00001381,0.00003406,0.00000747,-0.00001342,0.00
 024861,0.00001192,-0.00024438,-0.00010232,-0.00016399,0.00016613,0.000
 05908,-0.00001781,-0.00000984,-0.00007976,0.00001665,0.00007510,-0.000
 21911,0.00003370,0.00013892,0.00005594,0.00011392,-0.00004896,0.000687
 26,-0.00050628,-0.00033591,-0.00028542,0.00031677,0.00027313,-0.000858
 06,-0.00007653,0.00014268,-0.00010561,0.00024046,-0.00031329,-0.000079
 06,0.00053169,-0.00032675,-0.00006364,-0.00037615,0.00010164,0.0008078
 7,-0.00029761,0.00105105,-0.00316165,0.00330382,0.00229650,0.00008121,
 -0.00042564,0.00036112,-0.00005224,0.00043462,0.00018694,-0.00018710,0
 .00021954,-0.00059935,-0.00052965,-0.00017418,-0.00037353,0.00050540,0
 .00003773,0.00034570,0.00026425,0.00008063,0.00004402,-0.00004901,-0.0
 0001469,-0.00007980,-0.00015468,0.00008230,-0.00012309,0.00006158,-0.0
 0002955,0.00007202,0.00014730,-0.00014601,0.00009939,-0.00000609,0.000
 01089,-0.00000108,-0.00001521,-0.00000469,0.00000683,0.00007915,-0.000
 02738,-0.00011969,0.00001058,-0.00001787,0.00001852,0.00000868,-0.0000
 1179,-0.00000656,0.00001186,-0.00000585,-0.00000111,-0.00004075,-0.000
 01737,-0.00000114,0.00001615,0.00001244,0.00001787,0.00000781,0.000048
 06,-0.00001786,-0.00000162,-0.00004215,0.00012375,-0.00022868,-0.00038
 996,-0.00014887,-0.00017327,-0.00004577,0.00008743,0.00057655,-0.00004
 153,-0.00024523,0.00008109,-0.00000294,-0.00000620,-0.00012728,0.00000
 383,0.00000916,0.00004623,-0.00007154,-0.00000229,0.00016541,0.0002906
 5,-0.00018390,0.00001942,0.00000213,0.00001499,0.00000625,0.00003723,-
 0.00001773,-0.00004447,0.00002856,0.00000719,-0.00005220,0.00013057,-0
 .00002000,-0.00506473,-0.00050491,-0.00271009,0.02201722,-0.01055738,0
 .01896739\\0.00000511,0.00000538,-0.00000187,-0.00000227,-0.00000392,0
 .00000430,0.00000233,-0.00000883,0.00000546,0.00000021,0.00000056,0.00
 000003,-0.00000046,0.00000057,0.00000113,-0.00000404,0.00000888,0.0000
 0545,0.00000211,-0.00000116,-0.00000185,-0.00000108,-0.00000332,0.0000
 0245,0.00000035,0.00000095,-0.00000527,-0.00000042,-0.00000126,-0.0000
 0003,0.00000085,-0.00000125,0.00000023,0.00000063,-0.00000154,-0.00000
 159,0.00000148,-0.00000303,0.00000318,0.00000157,-0.00000325,-0.000000
 16,0.00000138,-0.00000199,0.00000232,-0.00000123,0.00000031,0.00000074
 ,0.00000027,0.00000018,-0.00000205,0.00000053,0.00000093,-0.00000129,0
 .00000067,-0.00000029,-0.00000167,0.00000127,-0.00000231,0.00000593,0.
 00000109,0.00000236,-0.00000269,-0.00000110,0.00000511,0.00000062,-0.0
 0000421,0.00000029,0.00000038,-0.00000357,-0.00000047,-0.00000503,0.00
 000381,0.00000140,-0.00000200,0.00000615,0.00000329,0.00001824,-0.0000
 0586,0.00000226,-0.00001057,0.00000045,0.00000141,-0.00001004,0.,0.000
 00246,-0.00000062,-0.00000128,-0.00000169,-0.00001423,0.00000253,-0.00
 000209,0.00000363,0.00000077,0.00001022,-0.00001595,0.00000057,-0.0000
 0179,0.00000093,-0.00000071,-0.00000689,0.00000938,0.00000009,-0.00000
 606,-0.00000966,0.00000379,0.00000538,0.00001112,-0.00000011,-0.000000
 91,-0.00000274,0.00000176,0.00000414,-0.00000337,0.00000191,-0.0000030
 7,0.00000370,-0.00000151,0.00000178,-0.00000099,0.00000338,-0.00000186
 ,0.00000144,-0.00000638,0.00000206,-0.00000009,-0.00000622,0.00000495,
 -0.00000239,0.00000034,-0.00000276,0.00000083,-0.00000041,0.00000773,0
 .00000854,-0.00000536,0.00000035,-0.00000103,0.00000535,0.00000080,0.0
 0000033,-0.00000270,0.00000157,0.00000054,-0.00000163,-0.00000300,0.00
 000164,-0.00000040,0.00000261,-0.00000472,-0.00000077,0.00000291,-0.00
 000356,0.00000055,-0.00000029,-0.00000409,0.00000122,0.00000137,-0.000
 00337,-0.00000095,0.00000249,-0.00000372,0.00000044,0.00000087,-0.0000
 0384,0.00000175,-0.00000039,-0.00000322,0.00000151,-0.00000095,-0.0000
 0078,-0.00000185,-0.00000177,0.00000189,-0.00000191,-0.00000544,-0.000
 00145,0.00000284,-0.00000321,0.00000158,0.,-0.00000142,-0.00000250,0.0
 0000115,-0.00000024,-0.00000066,0.00000266,-0.00000289,0.00000323,0.00
 000289,-0.00000114,0.00000474,0.00000052,-0.00000066,0.00000170,0.0000
 0056,0.00000070,0.00000247,-0.00000367,-0.00000088,0.00000259,-0.00000
 347,0.00000070,0.00000457,-0.00000311,0.00000168,0.00000176,0.00000111
 ,0.00000577,0.00000005,0.00000029,-0.00001206,0.00000795,-0.00000154,-
 0.00000035,0.00000403\\\@


 WE DON'T KNOW ONE MILLIONTH OF ONE PERCENT ABOUT
 ANYTHING.
                                     T. A. EDISON.
 Job cpu time:       0 days 16 hours 36 minutes 44.6 seconds.
 File lengths (MBytes):  RWF=   3672 Int=      0 D2E=      0 Chk=     33 Scr=      1
 Normal termination of Gaussian 09 at Tue Mar 14 14:11:15 2023.
