 Entering Gaussian System, Link 0=g09
 Input=AF44-helio.com
 Output=AF44-helio.log
 Initial command:
 /home/scr/programs/g09/l1.exe "/home/scr/helius/Gau-26642.inp" -scrdir="/home/scr/helius/"
 Entering Link 1 = /home/scr/programs/g09/l1.exe PID=     26644.
  
 Copyright (c) 1988,1990,1992,1993,1995,1998,2003,2009,2013,
            Gaussian, Inc.  All Rights Reserved.
  
 This is part of the Gaussian(R) 09 program.  It is based on
 the Gaussian(R) 03 system (copyright 2003, Gaussian, Inc.),
 the Gaussian(R) 98 system (copyright 1998, Gaussian, Inc.),
 the Gaussian(R) 94 system (copyright 1995, Gaussian, Inc.),
 the Gaussian 92(TM) system (copyright 1992, Gaussian, Inc.),
 the Gaussian 90(TM) system (copyright 1990, Gaussian, Inc.),
 the Gaussian 88(TM) system (copyright 1988, Gaussian, Inc.),
 the Gaussian 86(TM) system (copyright 1986, Carnegie Mellon
 University), and the Gaussian 82(TM) system (copyright 1983,
 Carnegie Mellon University). Gaussian is a federally registered
 trademark of Gaussian, Inc.
  
 This software contains proprietary and confidential information,
 including trade secrets, belonging to Gaussian, Inc.
  
 This software is provided under written license and may be
 used, copied, transmitted, or stored only in accord with that
 written license.
  
 The following legend is applicable only to US Government
 contracts under FAR:
  
                    RESTRICTED RIGHTS LEGEND
  
 Use, reproduction and disclosure by the US Government is
 subject to restrictions as set forth in subparagraphs (a)
 and (c) of the Commercial Computer Software - Restricted
 Rights clause in FAR 52.227-19.
  
 Gaussian, Inc.
 340 Quinnipiac St., Bldg. 40, Wallingford CT 06492
  
  
 ---------------------------------------------------------------
 Warning -- This program may not be used in any manner that
 competes with the business of Gaussian, Inc. or will provide
 assistance to any competitor of Gaussian, Inc.  The licensee
 of this program is prohibited from giving any competitor of
 Gaussian, Inc. access to this program.  By using this program,
 the user acknowledges that Gaussian, Inc. is engaged in the
 business of creating and licensing software in the field of
 computational chemistry and represents and warrants to the
 licensee that it is not a competitor of Gaussian, Inc. and that
 it will not use this program in any manner prohibited above.
 ---------------------------------------------------------------
  

 Cite this work as:
 Gaussian 09, Revision D.01,
 M. J. Frisch, G. W. Trucks, H. B. Schlegel, G. E. Scuseria, 
 M. A. Robb, J. R. Cheeseman, G. Scalmani, V. Barone, B. Mennucci, 
 G. A. Petersson, H. Nakatsuji, M. Caricato, X. Li, H. P. Hratchian, 
 A. F. Izmaylov, J. Bloino, G. Zheng, J. L. Sonnenberg, M. Hada, 
 M. Ehara, K. Toyota, R. Fukuda, J. Hasegawa, M. Ishida, T. Nakajima, 
 Y. Honda, O. Kitao, H. Nakai, T. Vreven, J. A. Montgomery, Jr., 
 J. E. Peralta, F. Ogliaro, M. Bearpark, J. J. Heyd, E. Brothers, 
 K. N. Kudin, V. N. Staroverov, T. Keith, R. Kobayashi, J. Normand, 
 K. Raghavachari, A. Rendell, J. C. Burant, S. S. Iyengar, J. Tomasi, 
 M. Cossi, N. Rega, J. M. Millam, M. Klene, J. E. Knox, J. B. Cross, 
 V. Bakken, C. Adamo, J. Jaramillo, R. Gomperts, R. E. Stratmann, 
 O. Yazyev, A. J. Austin, R. Cammi, C. Pomelli, J. W. Ochterski, 
 R. L. Martin, K. Morokuma, V. G. Zakrzewski, G. A. Voth, 
 P. Salvador, J. J. Dannenberg, S. Dapprich, A. D. Daniels, 
 O. Farkas, J. B. Foresman, J. V. Ortiz, J. Cioslowski, 
 and D. J. Fox, Gaussian, Inc., Wallingford CT, 2013.
 
 ******************************************
 Gaussian 09:  EM64L-G09RevD.01 24-Apr-2013
                16-Mar-2023 
 ******************************************
 %mem=30000MB
 %nprocshared=8
 Will use up to    8 processors via shared memory.
 ----------------------------------------
 # b3lyp/gen opt freq=noraman pseudo=read
 ----------------------------------------
 1/14=-1,18=20,19=15,26=3,38=1/1,3;
 2/9=110,12=2,17=6,18=5,40=1/2;
 3/5=7,11=2,16=1,17=8,25=1,30=1,71=1,74=-5/1,2,3;
 4//1;
 5/5=2,38=5/2;
 6/7=2,8=2,9=2,10=2,28=1/1;
 7//1,2,3,16;
 1/14=-1,18=20,19=15,26=3/3(2);
 2/9=110/2;
 99//99;
 2/9=110/2;
 3/5=7,6=1,11=2,16=1,17=8,25=1,30=1,71=1,74=-5,82=7/1,2,3;
 4/5=5,16=3,69=1/1;
 5/5=2,38=5/2;
 7//1,2,3,16;
 1/14=-1,18=20,19=15,26=3/3(-5);
 2/9=110/2;
 6/7=2,8=2,9=2,10=2,19=2,28=1/1;
 99/9=1/99;
 -------------------
 Title Card Required
 -------------------
 Symbolic Z-matrix:
 Charge =  0 Multiplicity = 1
 Au                    3.11152  -0.12067  -0.05122 
 P                     4.19031   1.6059    1.00328 
 C                     4.06419   3.21362   0.082 
 H                     4.62013   3.97301   0.64099 
 H                     3.00805   3.50411   0.10077 
 C                     5.99994   1.28128   1.1759 
 H                     6.47732   2.19911   1.54506 
 H                     6.35942   1.11077   0.1533 
 C                     3.54142   1.98092   2.69972 
 H                     3.54304   1.02636   3.23792 
 H                     2.48941   2.25598   2.56452 
 C                     4.57719   3.15099  -1.37078 
 H                     5.64852   2.93406  -1.42004 
 H                     4.06709   2.3746   -1.94998 
 H                     4.41364   4.12259  -1.85967 
 C                     4.28584   3.05322   3.50622 
 H                     3.80235   3.19462   4.47531 
 H                     5.32597   2.77298   3.69209 
 H                     4.28487   4.02538   2.99293 
 C                     6.33557   0.06909   2.05518 
 H                     5.89733  -0.83668   1.6387 
 H                     7.4201   -0.06729   2.09411 
 H                     5.97546   0.19804   3.08302 
 N                     2.002    -2.92589  -0.28602 
 O                     2.58749  -2.4206    0.73933 
 O                     1.63706  -4.11463  -0.26448 
 O                     1.8169   -2.19265  -1.31668 
 
 Add virtual bond connecting atoms O25        and Au1        Dist= 4.70D+00.

 GradGradGradGradGradGradGradGradGradGradGradGradGradGradGradGradGradGrad
 Berny optimization.
 Initialization pass.
                           ----------------------------
                           !    Initial Parameters    !
                           ! (Angstroms and Degrees)  !
 --------------------------                            --------------------------
 ! Name  Definition              Value          Derivative Info.                !
 --------------------------------------------------------------------------------
 ! R1    R(1,2)                  2.2928         estimate D2E/DX2                !
 ! R2    R(1,25)                 2.4878         estimate D2E/DX2                !
 ! R3    R(2,3)                  1.8573         estimate D2E/DX2                !
 ! R4    R(2,6)                  1.8466         estimate D2E/DX2                !
 ! R5    R(2,9)                  1.8546         estimate D2E/DX2                !
 ! R6    R(3,4)                  1.0946         estimate D2E/DX2                !
 ! R7    R(3,5)                  1.0955         estimate D2E/DX2                !
 ! R8    R(3,12)                 1.542          estimate D2E/DX2                !
 ! R9    R(6,7)                  1.0984         estimate D2E/DX2                !
 ! R10   R(6,8)                  1.0973         estimate D2E/DX2                !
 ! R11   R(6,20)                 1.5347         estimate D2E/DX2                !
 ! R12   R(9,10)                 1.0958         estimate D2E/DX2                !
 ! R13   R(9,11)                 1.0958         estimate D2E/DX2                !
 ! R14   R(9,16)                 1.5344         estimate D2E/DX2                !
 ! R15   R(12,13)                1.0942         estimate D2E/DX2                !
 ! R16   R(12,14)                1.0947         estimate D2E/DX2                !
 ! R17   R(12,15)                1.0999         estimate D2E/DX2                !
 ! R18   R(16,17)                1.0922         estimate D2E/DX2                !
 ! R19   R(16,18)                1.0931         estimate D2E/DX2                !
 ! R20   R(16,19)                1.0994         estimate D2E/DX2                !
 ! R21   R(20,21)                1.089          estimate D2E/DX2                !
 ! R22   R(20,22)                1.0938         estimate D2E/DX2                !
 ! R23   R(20,23)                1.0967         estimate D2E/DX2                !
 ! R24   R(24,25)                1.2843         estimate D2E/DX2                !
 ! R25   R(24,26)                1.2437         estimate D2E/DX2                !
 ! R26   R(24,27)                1.2783         estimate D2E/DX2                !
 ! A1    A(2,1,25)             130.4764         estimate D2E/DX2                !
 ! A2    A(1,2,3)              113.0652         estimate D2E/DX2                !
 ! A3    A(1,2,6)              111.8216         estimate D2E/DX2                !
 ! A4    A(1,2,9)              114.101          estimate D2E/DX2                !
 ! A5    A(3,2,6)              105.3723         estimate D2E/DX2                !
 ! A6    A(3,2,9)              104.7696         estimate D2E/DX2                !
 ! A7    A(6,2,9)              107.0321         estimate D2E/DX2                !
 ! A8    A(2,3,4)              108.2241         estimate D2E/DX2                !
 ! A9    A(2,3,5)              106.6488         estimate D2E/DX2                !
 ! A10   A(2,3,12)             114.1794         estimate D2E/DX2                !
 ! A11   A(4,3,5)              107.2731         estimate D2E/DX2                !
 ! A12   A(4,3,12)             109.8973         estimate D2E/DX2                !
 ! A13   A(5,3,12)             110.3431         estimate D2E/DX2                !
 ! A14   A(2,6,7)              108.0854         estimate D2E/DX2                !
 ! A15   A(2,6,8)              105.1445         estimate D2E/DX2                !
 ! A16   A(2,6,20)             114.0            estimate D2E/DX2                !
 ! A17   A(7,6,8)              107.4973         estimate D2E/DX2                !
 ! A18   A(7,6,20)             111.8639         estimate D2E/DX2                !
 ! A19   A(8,6,20)             109.8495         estimate D2E/DX2                !
 ! A20   A(2,9,10)             105.8186         estimate D2E/DX2                !
 ! A21   A(2,9,11)             105.891          estimate D2E/DX2                !
 ! A22   A(2,9,16)             116.8942         estimate D2E/DX2                !
 ! A23   A(10,9,11)            106.3009         estimate D2E/DX2                !
 ! A24   A(10,9,16)            110.4802         estimate D2E/DX2                !
 ! A25   A(11,9,16)            110.8062         estimate D2E/DX2                !
 ! A26   A(3,12,13)            112.099          estimate D2E/DX2                !
 ! A27   A(3,12,14)            111.8545         estimate D2E/DX2                !
 ! A28   A(3,12,15)            109.4769         estimate D2E/DX2                !
 ! A29   A(13,12,14)           106.9657         estimate D2E/DX2                !
 ! A30   A(13,12,15)           107.5013         estimate D2E/DX2                !
 ! A31   A(14,12,15)           108.7857         estimate D2E/DX2                !
 ! A32   A(9,16,17)            110.0031         estimate D2E/DX2                !
 ! A33   A(9,16,18)            111.829          estimate D2E/DX2                !
 ! A34   A(9,16,19)            111.8485         estimate D2E/DX2                !
 ! A35   A(17,16,18)           107.6698         estimate D2E/DX2                !
 ! A36   A(17,16,19)           107.4216         estimate D2E/DX2                !
 ! A37   A(18,16,19)           107.8744         estimate D2E/DX2                !
 ! A38   A(6,20,21)            110.478          estimate D2E/DX2                !
 ! A39   A(6,20,22)            109.6176         estimate D2E/DX2                !
 ! A40   A(6,20,23)            111.8561         estimate D2E/DX2                !
 ! A41   A(21,20,22)           107.9946         estimate D2E/DX2                !
 ! A42   A(21,20,23)           108.9104         estimate D2E/DX2                !
 ! A43   A(22,20,23)           107.8714         estimate D2E/DX2                !
 ! A44   A(25,24,26)           119.7355         estimate D2E/DX2                !
 ! A45   A(25,24,27)           118.9484         estimate D2E/DX2                !
 ! A46   A(26,24,27)           121.3134         estimate D2E/DX2                !
 ! A47   A(1,25,24)            101.8908         estimate D2E/DX2                !
 ! D1    D(25,1,2,3)          -170.0172         estimate D2E/DX2                !
 ! D2    D(25,1,2,6)            71.241          estimate D2E/DX2                !
 ! D3    D(25,1,2,9)           -50.4114         estimate D2E/DX2                !
 ! D4    D(2,1,25,24)         -178.8717         estimate D2E/DX2                !
 ! D5    D(1,2,3,4)           -178.8487         estimate D2E/DX2                !
 ! D6    D(1,2,3,5)             66.0168         estimate D2E/DX2                !
 ! D7    D(1,2,3,12)           -56.1246         estimate D2E/DX2                !
 ! D8    D(6,2,3,4)            -56.4319         estimate D2E/DX2                !
 ! D9    D(6,2,3,5)           -171.5664         estimate D2E/DX2                !
 ! D10   D(6,2,3,12)            66.2921         estimate D2E/DX2                !
 ! D11   D(9,2,3,4)             56.3135         estimate D2E/DX2                !
 ! D12   D(9,2,3,5)            -58.8209         estimate D2E/DX2                !
 ! D13   D(9,2,3,12)           179.0376         estimate D2E/DX2                !
 ! D14   D(1,2,6,7)            171.5434         estimate D2E/DX2                !
 ! D15   D(1,2,6,8)             56.9577         estimate D2E/DX2                !
 ! D16   D(1,2,6,20)           -63.4109         estimate D2E/DX2                !
 ! D17   D(3,2,6,7)             48.33           estimate D2E/DX2                !
 ! D18   D(3,2,6,8)            -66.2557         estimate D2E/DX2                !
 ! D19   D(3,2,6,20)           173.3757         estimate D2E/DX2                !
 ! D20   D(9,2,6,7)            -62.8157         estimate D2E/DX2                !
 ! D21   D(9,2,6,8)           -177.4014         estimate D2E/DX2                !
 ! D22   D(9,2,6,20)            62.23           estimate D2E/DX2                !
 ! D23   D(1,2,9,10)            52.0009         estimate D2E/DX2                !
 ! D24   D(1,2,9,11)           -60.5795         estimate D2E/DX2                !
 ! D25   D(1,2,9,16)           175.4681         estimate D2E/DX2                !
 ! D26   D(3,2,9,10)           176.181          estimate D2E/DX2                !
 ! D27   D(3,2,9,11)            63.6006         estimate D2E/DX2                !
 ! D28   D(3,2,9,16)           -60.3518         estimate D2E/DX2                !
 ! D29   D(6,2,9,10)           -72.2581         estimate D2E/DX2                !
 ! D30   D(6,2,9,11)           175.1615         estimate D2E/DX2                !
 ! D31   D(6,2,9,16)            51.209          estimate D2E/DX2                !
 ! D32   D(2,3,12,13)          -64.0492         estimate D2E/DX2                !
 ! D33   D(2,3,12,14)           56.0947         estimate D2E/DX2                !
 ! D34   D(2,3,12,15)          176.7499         estimate D2E/DX2                !
 ! D35   D(4,3,12,13)           57.7592         estimate D2E/DX2                !
 ! D36   D(4,3,12,14)          177.903          estimate D2E/DX2                !
 ! D37   D(4,3,12,15)          -61.4418         estimate D2E/DX2                !
 ! D38   D(5,3,12,13)          175.857          estimate D2E/DX2                !
 ! D39   D(5,3,12,14)          -63.9991         estimate D2E/DX2                !
 ! D40   D(5,3,12,15)           56.6561         estimate D2E/DX2                !
 ! D41   D(2,6,20,21)           60.1318         estimate D2E/DX2                !
 ! D42   D(2,6,20,22)          179.0261         estimate D2E/DX2                !
 ! D43   D(2,6,20,23)          -61.3708         estimate D2E/DX2                !
 ! D44   D(7,6,20,21)         -176.8569         estimate D2E/DX2                !
 ! D45   D(7,6,20,22)          -57.9627         estimate D2E/DX2                !
 ! D46   D(7,6,20,23)           61.6405         estimate D2E/DX2                !
 ! D47   D(8,6,20,21)          -57.5635         estimate D2E/DX2                !
 ! D48   D(8,6,20,22)           61.3308         estimate D2E/DX2                !
 ! D49   D(8,6,20,23)         -179.066          estimate D2E/DX2                !
 ! D50   D(2,9,16,17)          179.0978         estimate D2E/DX2                !
 ! D51   D(2,9,16,18)          -61.3127         estimate D2E/DX2                !
 ! D52   D(2,9,16,19)           59.8072         estimate D2E/DX2                !
 ! D53   D(10,9,16,17)         -59.8574         estimate D2E/DX2                !
 ! D54   D(10,9,16,18)          59.7321         estimate D2E/DX2                !
 ! D55   D(10,9,16,19)        -179.1479         estimate D2E/DX2                !
 ! D56   D(11,9,16,17)          57.6875         estimate D2E/DX2                !
 ! D57   D(11,9,16,18)         177.277          estimate D2E/DX2                !
 ! D58   D(11,9,16,19)         -61.603          estimate D2E/DX2                !
 ! D59   D(26,24,25,1)         177.2969         estimate D2E/DX2                !
 ! D60   D(27,24,25,1)          -2.1113         estimate D2E/DX2                !
 ! D61   D(25,24,26,27)       -179.3939         estimate D2E/DX2                !
 --------------------------------------------------------------------------------
 Trust Radius=3.00D-01 FncErr=1.00D-07 GrdErr=1.00D-06
 Number of steps in this run=    144 maximum allowed number of steps=    162.
 GradGradGradGradGradGradGradGradGradGradGradGradGradGradGradGradGradGrad

                          Input orientation:                          
 ---------------------------------------------------------------------
 Center     Atomic      Atomic             Coordinates (Angstroms)
 Number     Number       Type             X           Y           Z
 ---------------------------------------------------------------------
      1         79           0        3.111519   -0.120667   -0.051218
      2         15           0        4.190311    1.605895    1.003277
      3          6           0        4.064187    3.213624    0.082002
      4          1           0        4.620128    3.973011    0.640987
      5          1           0        3.008053    3.504110    0.100765
      6          6           0        5.999937    1.281284    1.175904
      7          1           0        6.477323    2.199110    1.545056
      8          1           0        6.359425    1.110766    0.153301
      9          6           0        3.541422    1.980915    2.699722
     10          1           0        3.543039    1.026361    3.237923
     11          1           0        2.489406    2.255980    2.564522
     12          6           0        4.577192    3.150995   -1.370784
     13          1           0        5.648515    2.934059   -1.420037
     14          1           0        4.067091    2.374599   -1.949976
     15          1           0        4.413635    4.122591   -1.859671
     16          6           0        4.285841    3.053220    3.506217
     17          1           0        3.802351    3.194620    4.475305
     18          1           0        5.325967    2.772981    3.692089
     19          1           0        4.284874    4.025385    2.992927
     20          6           0        6.335571    0.069088    2.055176
     21          1           0        5.897335   -0.836677    1.638699
     22          1           0        7.420096   -0.067294    2.094110
     23          1           0        5.975463    0.198043    3.083020
     24          7           0        2.002004   -2.925889   -0.286019
     25          8           0        2.587494   -2.420600    0.739333
     26          8           0        1.637058   -4.114633   -0.264482
     27          8           0        1.816902   -2.192648   -1.316677
 ---------------------------------------------------------------------
                    Distance matrix (angstroms):
                    1          2          3          4          5
     1  Au   0.000000
     2  P    2.292764   0.000000
     3  C    3.470277   1.857269   0.000000
     4  H    4.417380   2.432948   1.094625   0.000000
     5  H    3.629437   2.411531   1.095515   1.763659   0.000000
     6  C    3.437187   1.846597   2.945791   3.071710   3.879207
     7  H    4.388404   2.424016   2.998832   2.722726   3.978044
     8  H    3.479533   2.381736   3.113714   3.384588   4.118562
     9  C    3.488429   1.854622   2.940291   3.061118   3.059278
    10  H    3.510033   2.397595   3.874991   4.072707   4.033263
    11  H    3.588533   2.398578   3.091912   3.344870   2.810146
    12  C    3.820108   2.858877   1.541974   2.173655   2.179987
    13  H    4.200163   3.124553   2.200994   2.526820   3.099974
    14  H    3.277919   3.054143   2.198387   3.094165   2.569610
    15  H    4.792833   3.818390   2.172195   2.513624   2.490279
    16  C    4.909983   2.892851   3.435129   3.027756   3.665126
    17  H    5.653122   3.837908   4.401140   3.997080   4.456826
    18  H    5.223919   3.143488   3.849543   3.353730   4.336460
    19  H    5.275730   3.133940   3.030040   2.376291   3.204154
    20  C    3.855829   2.840846   4.352092   4.492582   5.166379
    21  H    3.336055   3.046941   4.710486   5.075410   5.436508
    22  H    4.813431   3.797498   5.106381   5.125959   6.016184
    23  H    4.257605   3.081257   4.663991   4.695832   5.350649
    24  N    3.025793   5.195001   6.487037   7.436984   6.519710
    25  O    2.487824   4.341814   5.861501   6.709660   5.973846
    26  O    4.262779   6.391459   7.727506   8.667674   7.749728
    27  O    2.751458   5.044223   6.019499   7.050239   5.990078
                    6          7          8          9         10
     6  C    0.000000
     7  H    1.098442   0.000000
     8  H    1.097281   1.770699   0.000000
     9  C    2.975870   3.162337   3.896480   0.000000
    10  H    3.217648   3.584852   4.177804   1.095827   0.000000
    11  H    3.898990   4.116555   4.701335   1.095754   1.753732
    12  C    3.464916   3.608144   3.108331   4.360152   5.179162
    13  H    3.097430   3.165257   2.511012   4.724483   5.456091
    14  H    3.834365   4.249149   3.357952   4.695850   5.385784
    15  H    4.450179   4.421623   4.112085   5.112299   6.027441
    16  C    3.392380   3.062393   4.394875   1.534416   2.175292
    17  H    4.401850   4.090584   5.436984   2.166532   2.509921
    18  H    3.001763   2.502938   4.044010   2.190151   2.536884
    19  H    3.711213   3.199757   4.567520   2.195119   3.099111
    20  C    1.534662   2.194837   2.168592   3.446417   3.180172
    21  H    2.170361   3.092112   2.492482   3.822947   3.401637
    22  H    2.163011   2.515327   2.505911   4.427871   4.187596
    23  H    2.193422   2.573221   3.092530   3.041399   2.574256
    24  N    5.985064   7.046057   5.956064   5.946526   5.514819
    25  O    5.053643   6.092757   5.200139   4.911867   4.363205
    26  O    7.086984   8.158796   7.055501   7.040512   6.506107
    27  O    5.981550   7.014027   5.805850   6.043513   5.838317
                   11         12         13         14         15
    11  H    0.000000
    12  C    4.543846   0.000000
    13  H    5.129958   1.094176   0.000000
    14  H    4.783707   1.094741   1.759185   0.000000
    15  H    5.173043   1.099891   1.769411   1.784299   0.000000
    16  C    2.179348   4.886674   5.112637   5.502583   5.472900
    17  H    2.501192   5.897376   6.183144   6.482805   6.431696
    18  H    3.095929   5.131885   5.124823   5.794512   5.785831
    19  H    2.556957   4.460043   4.746026   5.215823   4.855279
    20  C    4.453641   4.932266   4.556008   5.148070   5.954053
    21  H    4.694215   5.167329   4.861710   5.151764   6.247743
    22  H    5.470886   5.517697   4.949328   5.793109   6.498179
    23  H    4.081242   5.523718   5.279224   5.806060   6.501660
    24  N    5.934215   6.688559   6.994428   5.926931   7.614027
    25  O    5.021089   6.281255   6.534914   5.693464   7.273443
    26  O    7.022426   7.915658   8.192140   7.131345   8.837752
    27  O    5.941907   6.014702   6.401177   5.130707   6.849825
                   16         17         18         19         20
    16  C    0.000000
    17  H    1.092194   0.000000
    18  H    1.093135   1.764260   0.000000
    19  H    1.099351   1.766478   1.772348   0.000000
    20  C    3.900251   4.695016   3.318105   4.553792   0.000000
    21  H    4.606065   5.355992   4.191957   5.298454   1.088997
    22  H    4.642759   5.422015   3.873768   5.233308   1.093760
    23  H    3.344541   3.954788   2.724540   4.185063   1.096709
    24  N    7.439536   7.960658   7.703972   8.017680   5.764623
    25  O    6.364176   6.853033   6.572008   7.036370   4.688078
    26  O    8.521287   8.976595   8.757952   9.158686   6.705249
    27  O    7.541558   8.155471   7.877737   7.957858   6.074801
                   21         22         23         24         25
    21  H    0.000000
    22  H    1.765829   0.000000
    23  H    1.778430   1.770681   0.000000
    24  N    4.821094   6.572085   6.074351   0.000000
    25  O    3.777925   5.543240   4.881444   1.284313   0.000000
    26  O    5.702373   7.442274   6.973285   1.243689   2.186486
    27  O    5.217551   6.895388   6.508945   1.278343   2.207476
                   26         27
    26  O    0.000000
    27  O    2.198519   0.000000
 Stoichiometry    C6H15AuNO3P
 Framework group  C1[X(C6H15AuNO3P)]
 Deg. of freedom    75
 Full point group                 C1      NOp   1
 Largest Abelian subgroup         C1      NOp   1
 Largest concise Abelian subgroup C1      NOp   1
                         Standard orientation:                         
 ---------------------------------------------------------------------
 Center     Atomic      Atomic             Coordinates (Angstroms)
 Number     Number       Type             X           Y           Z
 ---------------------------------------------------------------------
      1         79           0        0.581307    0.349466   -0.074568
      2         15           0       -1.678152   -0.039888   -0.070403
      3          6           0       -2.682170    1.498827   -0.341977
      4          1           0       -3.741886    1.227145   -0.304633
      5          1           0       -2.468780    1.836896   -1.361941
      6          6           0       -2.254275   -0.721335    1.546269
      7          1           0       -3.352497   -0.740874    1.536158
      8          1           0       -1.944349    0.017795    2.295707
      9          6           0       -2.246713   -1.214196   -1.388493
     10          1           0       -1.615655   -2.104411   -1.287901
     11          1           0       -1.973331   -0.749606   -2.342482
     12          6           0       -2.393876    2.627573    0.668222
     13          1           0       -2.666094    2.345244    1.689695
     14          1           0       -1.333571    2.899545    0.683779
     15          1           0       -2.983826    3.517028    0.402534
     16          6           0       -3.730726   -1.604092   -1.377611
     17          1           0       -3.944772   -2.282830   -2.206095
     18          1           0       -4.010611   -2.112582   -0.451303
     19          1           0       -4.384776   -0.727967   -1.492485
     20          6           0       -1.661409   -2.094004    1.891926
     21          1           0       -0.575499   -2.036290    1.950088
     22          1           0       -2.035113   -2.420524    2.866626
     23          1           0       -1.937783   -2.855890    1.153064
     24          7           0        3.501066   -0.444529   -0.072501
     25          8           0        2.494071   -1.241053   -0.103703
     26          8           0        4.653772   -0.909049   -0.025036
     27          8           0        3.292797    0.816714   -0.079565
 ---------------------------------------------------------------------
 Rotational constants (GHZ):      0.9638386      0.2975334      0.2675455
 General basis read from cards:  (5D, 7F)
 ======================================================================================================
                                       Pseudopotential Parameters
 ======================================================================================================
  Center     Atomic      Valence      Angular      Power
  Number     Number     Electrons     Momentum     of R      Exponent        Coefficient   SO-Coeffient
 ======================================================================================================
    1         79           19
                                      G and up 
                                                     1      622.6287956      -60.00000000    0.00000000
                                                     2      136.2843607     -555.52923120    0.00000000
                                                     2       33.1549781     -168.00197850    0.00000000
                                                     2        9.9894895      -63.03998750    0.00000000
                                                     2        3.0481312       -4.25166810    0.00000000
                                      S - G
                                                     0      194.7374304        3.00000000    0.00000000
                                                     1      351.5327447       38.60208800    0.00000000
                                                     2      122.3270402      864.83707270    0.00000000
                                                     2       32.0914617      374.99355200    0.00000000
                                                     2        5.2451812      289.79101000    0.00000000
                                                     2        4.4916223     -152.45327730    0.00000000
                                      P - G
                                                     0      420.6158801        2.00000000    0.00000000
                                                     1      109.4417815       73.88856250    0.00000000
                                                     2       34.1714280      326.67298720    0.00000000
                                                     2        5.9879750      126.58145910    0.00000000
                                      D - G
                                                     0      219.2666158        3.00000000    0.00000000
                                                     1      122.7297786       55.67931490    0.00000000
                                                     2       63.1063369      449.19873350    0.00000000
                                                     2       18.3684520      215.02690910    0.00000000
                                                     2        4.4972844       64.08409950    0.00000000
                                      F - G
                                                     0      108.5506037        4.00000000    0.00000000
                                                     1       56.4795527       51.80653350    0.00000000
                                                     2       29.2069159      231.21831130    0.00000000
                                                     2        9.5440543      119.00473860    0.00000000
                                                     2        2.8965118       15.34241880    0.00000000
    2         15
                                   No pseudopotential on this center.
    3          6
                                   No pseudopotential on this center.
    4          1
                                   No pseudopotential on this center.
    5          1
                                   No pseudopotential on this center.
    6          6
                                   No pseudopotential on this center.
    7          1
                                   No pseudopotential on this center.
    8          1
                                   No pseudopotential on this center.
    9          6
                                   No pseudopotential on this center.
   10          1
                                   No pseudopotential on this center.
   11          1
                                   No pseudopotential on this center.
   12          6
                                   No pseudopotential on this center.
   13          1
                                   No pseudopotential on this center.
   14          1
                                   No pseudopotential on this center.
   15          1
                                   No pseudopotential on this center.
   16          6
                                   No pseudopotential on this center.
   17          1
                                   No pseudopotential on this center.
   18          1
                                   No pseudopotential on this center.
   19          1
                                   No pseudopotential on this center.
   20          6
                                   No pseudopotential on this center.
   21          1
                                   No pseudopotential on this center.
   22          1
                                   No pseudopotential on this center.
   23          1
                                   No pseudopotential on this center.
   24          7
                                   No pseudopotential on this center.
   25          8
                                   No pseudopotential on this center.
   26          8
                                   No pseudopotential on this center.
   27          8
                                   No pseudopotential on this center.
 ======================================================================================================
 There are   247 symmetry adapted cartesian basis functions of A   symmetry.
 There are   230 symmetry adapted basis functions of A   symmetry.
   230 basis functions,   440 primitive gaussians,   247 cartesian basis functions
    58 alpha electrons       58 beta electrons
       nuclear repulsion energy       995.8225378204 Hartrees.
 NAtoms=   27 NActive=   27 NUniq=   27 SFac= 1.00D+00 NAtFMM=   60 NAOKFM=F Big=F
 Integral buffers will be    131072 words long.
 Raffenetti 2 integral format.
 Two-electron integral symmetry is turned on.
 One-electron integrals computed using PRISM.
   1 Symmetry operations used in ECPInt.
 ECPInt:  NShTT=    4005 NPrTT=   20559 LenC2=    3681 LenP2D=   12110.
 LDataN:  DoStor=T MaxTD1= 7 Len=  274
 NBasis=   230 RedAO= T EigKep=  2.59D-03  NBF=   230
 NBsUse=   230 1.00D-06 EigRej= -1.00D+00 NBFU=   230
 Defaulting to unpruned grid for atomic number  79.
 ExpMin= 2.79D-02 ExpMax= 1.94D+04 ExpMxC= 2.91D+03 IAcc=3 IRadAn=         5 AccDes= 0.00D+00
 Harris functional with IExCor=  402 and IRadAn=       5 diagonalized for initial guess.
 HarFok:  IExCor=  402 AccDes= 0.00D+00 IRadAn=         5 IDoV= 1 UseB2=F ITyADJ=14
 ICtDFT=  3500011 ScaDFX=  1.000000  1.000000  1.000000  1.000000
 Defaulting to unpruned grid for atomic number  79.
 Defaulting to unpruned grid for atomic number  79.
 Defaulting to unpruned grid for atomic number  79.
 Defaulting to unpruned grid for atomic number  79.
 Defaulting to unpruned grid for atomic number  79.
 Defaulting to unpruned grid for atomic number  79.
 Defaulting to unpruned grid for atomic number  79.
 Defaulting to unpruned grid for atomic number  79.
 FoFCou: FMM=F IPFlag=           0 FMFlag=      100000 FMFlg1=           0
         NFxFlg=           0 DoJE=T BraDBF=F KetDBF=T FulRan=T
         wScrn=  0.000000 ICntrl=     500 IOpCl=  0 I1Cent=   200000004 NGrid=           0
         NMat0=    1 NMatS0=      1 NMatT0=    0 NMatD0=    1 NMtDS0=    0 NMtDT0=    0
 Petite list used in FoFCou.
 Keep R1 ints in memory in canonical form, NReq=360694675.
 Requested convergence on RMS density matrix=1.00D-08 within 128 cycles.
 Requested convergence on MAX density matrix=1.00D-06.
 Requested convergence on             energy=1.00D-06.
 No special actions if energy rises.
 Defaulting to unpruned grid for atomic number  79.
 Defaulting to unpruned grid for atomic number  79.
 Defaulting to unpruned grid for atomic number  79.
 Defaulting to unpruned grid for atomic number  79.
 Defaulting to unpruned grid for atomic number  79.
 Defaulting to unpruned grid for atomic number  79.
 Defaulting to unpruned grid for atomic number  79.
 Defaulting to unpruned grid for atomic number  79.
 EnCoef did     1 forward-backward iterations
 EnCoef did     3 forward-backward iterations
 SCF Done:  E(RB3LYP) =  -994.833722510     A.U. after   16 cycles
            NFock= 16  Conv=0.71D-08     -V/T= 2.1077

 **********************************************************************

            Population analysis using the SCF density.

 **********************************************************************

 Orbital symmetries:
       Occupied  (A) (A) (A) (A) (A) (A) (A) (A) (A) (A) (A) (A)
                 (A) (A) (A) (A) (A) (A) (A) (A) (A) (A) (A) (A)
                 (A) (A) (A) (A) (A) (A) (A) (A) (A) (A) (A) (A)
                 (A) (A) (A) (A) (A) (A) (A) (A) (A) (A) (A) (A)
                 (A) (A) (A) (A) (A) (A) (A) (A) (A) (A)
       Virtual   (A) (A) (A) (A) (A) (A) (A) (A) (A) (A) (A) (A)
                 (A) (A) (A) (A) (A) (A) (A) (A) (A) (A) (A) (A)
                 (A) (A) (A) (A) (A) (A) (A) (A) (A) (A) (A) (A)
                 (A) (A) (A) (A) (A) (A) (A) (A) (A) (A) (A) (A)
                 (A) (A) (A) (A) (A) (A) (A) (A) (A) (A) (A) (A)
                 (A) (A) (A) (A) (A) (A) (A) (A) (A) (A) (A) (A)
                 (A) (A) (A) (A) (A) (A) (A) (A) (A) (A) (A) (A)
                 (A) (A) (A) (A) (A) (A) (A) (A) (A) (A) (A) (A)
                 (A) (A) (A) (A) (A) (A) (A) (A) (A) (A) (A) (A)
                 (A) (A) (A) (A) (A) (A) (A) (A) (A) (A) (A) (A)
                 (A) (A) (A) (A) (A) (A) (A) (A) (A) (A) (A) (A)
                 (A) (A) (A) (A) (A) (A) (A) (A) (A) (A) (A) (A)
                 (A) (A) (A) (A) (A) (A) (A) (A) (A) (A) (A) (A)
                 (A) (A) (A) (A) (A) (A) (A) (A) (A) (A) (A) (A)
                 (A) (A) (A) (A)
 The electronic state is 1-A.
 Alpha  occ. eigenvalues --  -77.15277 -19.12879 -19.12840 -19.11506 -14.54768
 Alpha  occ. eigenvalues --  -10.23383 -10.23248 -10.23090 -10.21739 -10.20883
 Alpha  occ. eigenvalues --  -10.20733  -6.63100  -4.79231  -4.79218  -4.79093
 Alpha  occ. eigenvalues --   -4.17629  -2.32121  -2.30453  -2.30202  -1.18749
 Alpha  occ. eigenvalues --   -0.98104  -0.97178  -0.84261  -0.79875  -0.79626
 Alpha  occ. eigenvalues --   -0.70943  -0.66730  -0.65774  -0.58306  -0.56502
 Alpha  occ. eigenvalues --   -0.51070  -0.49657  -0.48991  -0.48880  -0.48072
 Alpha  occ. eigenvalues --   -0.47565  -0.46314  -0.45910  -0.44866  -0.42380
 Alpha  occ. eigenvalues --   -0.41694  -0.41384  -0.40412  -0.40130  -0.38851
 Alpha  occ. eigenvalues --   -0.38484  -0.36467  -0.36404  -0.33338  -0.32786
 Alpha  occ. eigenvalues --   -0.31702  -0.31624  -0.29567  -0.27845  -0.26882
 Alpha  occ. eigenvalues --   -0.25940  -0.25213  -0.20760
 Alpha virt. eigenvalues --   -0.05903  -0.03410  -0.01007   0.01292   0.02497
 Alpha virt. eigenvalues --    0.04164   0.04360   0.06759   0.07805   0.08502
 Alpha virt. eigenvalues --    0.09250   0.09604   0.10766   0.11530   0.12381
 Alpha virt. eigenvalues --    0.12817   0.13321   0.14320   0.14587   0.14917
 Alpha virt. eigenvalues --    0.16462   0.17129   0.17379   0.18391   0.18847
 Alpha virt. eigenvalues --    0.19206   0.20691   0.21956   0.23211   0.24057
 Alpha virt. eigenvalues --    0.31262   0.35005   0.35382   0.37138   0.38192
 Alpha virt. eigenvalues --    0.38956   0.39466   0.40815   0.41903   0.43655
 Alpha virt. eigenvalues --    0.47432   0.50661   0.51870   0.53794   0.55531
 Alpha virt. eigenvalues --    0.56447   0.56744   0.58208   0.59729   0.61369
 Alpha virt. eigenvalues --    0.63437   0.64295   0.67114   0.67612   0.70547
 Alpha virt. eigenvalues --    0.72661   0.75027   0.77197   0.77673   0.78753
 Alpha virt. eigenvalues --    0.79933   0.80332   0.82220   0.82888   0.83550
 Alpha virt. eigenvalues --    0.84201   0.84403   0.85588   0.86588   0.86843
 Alpha virt. eigenvalues --    0.87839   0.89447   0.90165   0.91887   0.92847
 Alpha virt. eigenvalues --    0.93748   0.94088   0.96103   0.96601   0.96896
 Alpha virt. eigenvalues --    0.98075   0.98761   0.99378   0.99523   1.00349
 Alpha virt. eigenvalues --    1.01093   1.02220   1.03176   1.04965   1.06244
 Alpha virt. eigenvalues --    1.10545   1.14687   1.15790   1.23291   1.31175
 Alpha virt. eigenvalues --    1.33437   1.41117   1.42463   1.46263   1.47846
 Alpha virt. eigenvalues --    1.49255   1.50867   1.51636   1.54230   1.56871
 Alpha virt. eigenvalues --    1.61746   1.63796   1.65723   1.67425   1.72048
 Alpha virt. eigenvalues --    1.78514   1.78778   1.84362   1.84833   1.85282
 Alpha virt. eigenvalues --    1.86807   1.87366   1.87813   1.88537   1.89294
 Alpha virt. eigenvalues --    1.89621   1.92803   1.93297   1.93573   1.94248
 Alpha virt. eigenvalues --    1.95368   1.96505   1.97313   1.98407   1.98716
 Alpha virt. eigenvalues --    1.99419   1.99606   2.00855   2.01911   2.02802
 Alpha virt. eigenvalues --    2.04345   2.06405   2.07127   2.08461   2.10580
 Alpha virt. eigenvalues --    2.13620   2.15499   2.19553   2.22035   2.22707
 Alpha virt. eigenvalues --    2.23196   2.24267   2.25471   2.26435   2.28177
 Alpha virt. eigenvalues --    2.28719   2.29568   2.30182   2.30504   2.30780
 Alpha virt. eigenvalues --    2.31258   2.35092   2.56078   2.57299   2.60144
 Alpha virt. eigenvalues --    2.61507   2.64407   2.68987   2.86600   2.88278
 Alpha virt. eigenvalues --    2.91417   3.06731   3.09730  15.57769  15.59455
 Alpha virt. eigenvalues --   15.68201  43.08175
          Condensed to atoms (all electrons):
               1          2          3          4          5          6
     1  Au  18.417420   0.361848  -0.035230   0.005313  -0.003522  -0.031309
     2  P    0.361848  13.545748   0.309573  -0.028372  -0.028598   0.313595
     3  C   -0.035230   0.309573   5.245236   0.355507   0.370866  -0.029143
     4  H    0.005313  -0.028372   0.355507   0.556721  -0.029722  -0.003914
     5  H   -0.003522  -0.028598   0.370866  -0.029722   0.527731   0.001916
     6  C   -0.031309   0.313595  -0.029143  -0.003914   0.001916   5.238735
     7  H    0.005249  -0.030402  -0.002540   0.002868   0.000007   0.358577
     8  H   -0.005785  -0.034509  -0.001442  -0.000224   0.000025   0.373720
     9  C   -0.028073   0.309194  -0.030736  -0.002460  -0.001061  -0.029390
    10  H   -0.001825  -0.029443   0.001939  -0.000016   0.000022  -0.002155
    11  H   -0.001517  -0.030005  -0.002708  -0.000192   0.001738   0.001951
    12  C   -0.000539  -0.038063   0.362899  -0.032351  -0.027696  -0.001437
    13  H   -0.000570  -0.006156  -0.036453  -0.003382   0.004278   0.001935
    14  H    0.012325  -0.009106  -0.032383   0.003912  -0.002872  -0.000141
    15  H   -0.000681   0.004709  -0.028465  -0.003341  -0.004935  -0.000009
    16  C    0.002915  -0.025251  -0.004214   0.001296  -0.000111  -0.002705
    17  H   -0.000402   0.004049   0.000034  -0.000051  -0.000010   0.000019
    18  H    0.000055  -0.007389  -0.000180   0.000025   0.000018   0.001897
    19  H    0.000423  -0.006245   0.001869   0.003846   0.000200  -0.000335
    20  C    0.000538  -0.036705   0.001557  -0.000012  -0.000022   0.358028
    21  H    0.009275  -0.008827   0.000019  -0.000001   0.000001  -0.033056
    22  H   -0.000701   0.004759  -0.000054  -0.000002   0.000000  -0.027831
    23  H   -0.001012  -0.006482   0.000014   0.000000   0.000000  -0.038773
    24  N   -0.037662   0.000052   0.000000   0.000000   0.000000   0.000000
    25  O    0.101005  -0.000551   0.000001   0.000000   0.000000  -0.000001
    26  O    0.008806  -0.000003   0.000000   0.000000   0.000000   0.000000
    27  O    0.108060  -0.000182   0.000000   0.000000   0.000000   0.000000
               7          8          9         10         11         12
     1  Au   0.005249  -0.005785  -0.028073  -0.001825  -0.001517  -0.000539
     2  P   -0.030402  -0.034509   0.309194  -0.029443  -0.030005  -0.038063
     3  C   -0.002540  -0.001442  -0.030736   0.001939  -0.002708   0.362899
     4  H    0.002868  -0.000224  -0.002460  -0.000016  -0.000192  -0.032351
     5  H    0.000007   0.000025  -0.001061   0.000022   0.001738  -0.027696
     6  C    0.358577   0.373720  -0.029390  -0.002155   0.001951  -0.001437
     7  H    0.551593  -0.028887  -0.003543  -0.000115  -0.000018  -0.000252
     8  H   -0.028887   0.522674   0.002081   0.000009  -0.000022   0.001361
     9  C   -0.003543   0.002081   5.248846   0.371914   0.372562   0.001550
    10  H   -0.000115   0.000009   0.371914   0.508284  -0.023888  -0.000022
    11  H   -0.000018  -0.000022   0.372562  -0.023888   0.518279   0.000013
    12  C   -0.000252   0.001361   0.001550  -0.000022   0.000013   5.068272
    13  H    0.000379   0.002560   0.000017   0.000000   0.000002   0.380733
    14  H    0.000012   0.000001   0.000020   0.000000  -0.000002   0.381569
    15  H   -0.000010  -0.000038  -0.000050   0.000000  -0.000002   0.374483
    16  C    0.001893   0.000008   0.349298  -0.032685  -0.031924   0.000074
    17  H   -0.000042   0.000001  -0.028167  -0.003601  -0.003876   0.000000
    18  H    0.001774   0.000026  -0.035718  -0.003407   0.004228  -0.000005
    19  H    0.000019  -0.000010  -0.036599   0.004178  -0.002744  -0.000030
    20  C   -0.030748  -0.027603  -0.001273   0.001279   0.000043   0.000074
    21  H    0.003855  -0.003538  -0.000204  -0.000069  -0.000005  -0.000005
    22  H   -0.004369  -0.004186   0.000005  -0.000035   0.000001   0.000000
    23  H   -0.002971   0.004379   0.002003   0.001550   0.000011   0.000000
    24  N    0.000000   0.000000   0.000000  -0.000001   0.000000   0.000000
    25  O    0.000000  -0.000001  -0.000017  -0.000020  -0.000002   0.000000
    26  O    0.000000   0.000000   0.000000   0.000000   0.000000   0.000000
    27  O    0.000000   0.000000   0.000000   0.000000   0.000000   0.000000
              13         14         15         16         17         18
     1  Au  -0.000570   0.012325  -0.000681   0.002915  -0.000402   0.000055
     2  P   -0.006156  -0.009106   0.004709  -0.025251   0.004049  -0.007389
     3  C   -0.036453  -0.032383  -0.028465  -0.004214   0.000034  -0.000180
     4  H   -0.003382   0.003912  -0.003341   0.001296  -0.000051   0.000025
     5  H    0.004278  -0.002872  -0.004935  -0.000111  -0.000010   0.000018
     6  C    0.001935  -0.000141  -0.000009  -0.002705   0.000019   0.001897
     7  H    0.000379   0.000012  -0.000010   0.001893  -0.000042   0.001774
     8  H    0.002560   0.000001  -0.000038   0.000008   0.000001   0.000026
     9  C    0.000017   0.000020  -0.000050   0.349298  -0.028167  -0.035718
    10  H    0.000000   0.000000   0.000000  -0.032685  -0.003601  -0.003407
    11  H    0.000002  -0.000002  -0.000002  -0.031924  -0.003876   0.004228
    12  C    0.380733   0.381569   0.374483   0.000074   0.000000  -0.000005
    13  H    0.556161  -0.030197  -0.029314  -0.000004   0.000000   0.000000
    14  H   -0.030197   0.497034  -0.025274  -0.000002   0.000000   0.000000
    15  H   -0.029314  -0.025274   0.544796   0.000000   0.000000   0.000000
    16  C   -0.000004  -0.000002   0.000000   5.059069   0.380051   0.382193
    17  H    0.000000   0.000000   0.000000   0.380051   0.531025  -0.028389
    18  H    0.000000   0.000000   0.000000   0.382193  -0.028389   0.548282
    19  H    0.000002   0.000000   0.000004   0.380494  -0.028741  -0.030483
    20  C    0.000000  -0.000007   0.000000  -0.001122   0.000000   0.000538
    21  H    0.000002  -0.000001   0.000000   0.000030   0.000000  -0.000013
    22  H    0.000002   0.000000   0.000000   0.000000   0.000000  -0.000011
    23  H    0.000000   0.000000   0.000000   0.000245  -0.000018   0.001826
    24  N    0.000000   0.000000   0.000000   0.000000   0.000000   0.000000
    25  O    0.000000  -0.000001   0.000000   0.000000   0.000000   0.000000
    26  O    0.000000   0.000000   0.000000   0.000000   0.000000   0.000000
    27  O    0.000000  -0.000002   0.000000   0.000000   0.000000   0.000000
              19         20         21         22         23         24
     1  Au   0.000423   0.000538   0.009275  -0.000701  -0.001012  -0.037662
     2  P   -0.006245  -0.036705  -0.008827   0.004759  -0.006482   0.000052
     3  C    0.001869   0.001557   0.000019  -0.000054   0.000014   0.000000
     4  H    0.003846  -0.000012  -0.000001  -0.000002   0.000000   0.000000
     5  H    0.000200  -0.000022   0.000001   0.000000   0.000000   0.000000
     6  C   -0.000335   0.358028  -0.033056  -0.027831  -0.038773   0.000000
     7  H    0.000019  -0.030748   0.003855  -0.004369  -0.002971   0.000000
     8  H   -0.000010  -0.027603  -0.003538  -0.004186   0.004379   0.000000
     9  C   -0.036599  -0.001273  -0.000204   0.000005   0.002003   0.000000
    10  H    0.004178   0.001279  -0.000069  -0.000035   0.001550  -0.000001
    11  H   -0.002744   0.000043  -0.000005   0.000001   0.000011   0.000000
    12  C   -0.000030   0.000074  -0.000005   0.000000   0.000000   0.000000
    13  H    0.000002   0.000000   0.000002   0.000002   0.000000   0.000000
    14  H    0.000000  -0.000007  -0.000001   0.000000   0.000000   0.000000
    15  H    0.000004   0.000000   0.000000   0.000000   0.000000   0.000000
    16  C    0.380494  -0.001122   0.000030   0.000000   0.000245   0.000000
    17  H   -0.028741   0.000000   0.000000   0.000000  -0.000018   0.000000
    18  H   -0.030483   0.000538  -0.000013  -0.000011   0.001826   0.000000
    19  H    0.553171   0.000053  -0.000002   0.000000  -0.000009   0.000000
    20  C    0.000053   5.067393   0.385527   0.374798   0.382114   0.000000
    21  H   -0.000002   0.385527   0.483151  -0.025919  -0.026502  -0.000003
    22  H    0.000000   0.374798  -0.025919   0.542462  -0.029274   0.000000
    23  H   -0.000009   0.382114  -0.026502  -0.029274   0.552084   0.000000
    24  N    0.000000   0.000000  -0.000003   0.000000   0.000000   5.417089
    25  O    0.000000  -0.000035  -0.000024   0.000000  -0.000002   0.250732
    26  O    0.000000   0.000000   0.000000   0.000000   0.000000   0.388202
    27  O    0.000000   0.000000  -0.000002   0.000000   0.000000   0.265402
              25         26         27
     1  Au   0.101005   0.008806   0.108060
     2  P   -0.000551  -0.000003  -0.000182
     3  C    0.000001   0.000000   0.000000
     4  H    0.000000   0.000000   0.000000
     5  H    0.000000   0.000000   0.000000
     6  C   -0.000001   0.000000   0.000000
     7  H    0.000000   0.000000   0.000000
     8  H   -0.000001   0.000000   0.000000
     9  C   -0.000017   0.000000   0.000000
    10  H   -0.000020   0.000000   0.000000
    11  H   -0.000002   0.000000   0.000000
    12  C    0.000000   0.000000   0.000000
    13  H    0.000000   0.000000   0.000000
    14  H   -0.000001   0.000000  -0.000002
    15  H    0.000000   0.000000   0.000000
    16  C    0.000000   0.000000   0.000000
    17  H    0.000000   0.000000   0.000000
    18  H    0.000000   0.000000   0.000000
    19  H    0.000000   0.000000   0.000000
    20  C   -0.000035   0.000000   0.000000
    21  H   -0.000024   0.000000  -0.000002
    22  H    0.000000   0.000000   0.000000
    23  H   -0.000002   0.000000   0.000000
    24  N    0.250732   0.388202   0.265402
    25  O    8.288702  -0.091128  -0.108797
    26  O   -0.091128   8.195816  -0.089019
    27  O   -0.108797  -0.089019   8.249693
 Mulliken charges:
               1
     1  Au   0.115595
     2  P    0.472761
     3  C   -0.445965
     4  H    0.174554
     5  H    0.191747
     6  C   -0.450175
     7  H    0.177671
     8  H    0.199399
     9  C   -0.460200
    10  H    0.208106
    11  H    0.198076
    12  C   -0.470626
    13  H    0.160005
    14  H    0.205114
    15  H    0.168126
    16  C   -0.459547
    17  H    0.178119
    18  H    0.164732
    19  H    0.160938
    20  C   -0.474416
    21  H    0.216310
    22  H    0.170354
    23  H    0.160817
    24  N    0.716191
    25  O   -0.439861
    26  O   -0.412674
    27  O   -0.425151
 Sum of Mulliken charges =   0.00000
 Mulliken charges with hydrogens summed into heavy atoms:
               1
     1  Au   0.115595
     2  P    0.472761
     3  C   -0.079664
     6  C   -0.073105
     9  C   -0.054018
    12  C    0.062619
    16  C    0.044242
    20  C    0.073065
    24  N    0.716191
    25  O   -0.439861
    26  O   -0.412674
    27  O   -0.425151
 Electronic spatial extent (au):  <R**2>=           4177.9204
 Charge=              0.0000 electrons
 Dipole moment (field-independent basis, Debye):
    X=            -14.0241    Y=              0.5300    Z=              0.1967  Tot=             14.0355
 Quadrupole moment (field-independent basis, Debye-Ang):
   XX=           -118.6660   YY=            -96.5090   ZZ=            -91.0304
   XY=              5.4855   XZ=              1.3251   YZ=             -0.0613
 Traceless Quadrupole moment (field-independent basis, Debye-Ang):
   XX=            -16.5975   YY=              5.5594   ZZ=             11.0381
   XY=              5.4855   XZ=              1.3251   YZ=             -0.0613
 Octapole moment (field-independent basis, Debye-Ang**2):
  XXX=            -85.2470  YYY=             41.7607  ZZZ=             -8.7141  XYY=              2.6053
  XXY=             27.2243  XXZ=             -6.1765  XZZ=             25.5554  YZZ=              6.2438
  YYZ=             -3.3757  XYZ=             -1.4843
 Hexadecapole moment (field-independent basis, Debye-Ang**3):
 XXXX=          -4286.0810 YYYY=          -1033.6222 ZZZZ=           -561.9818 XXXY=             95.4283
 XXXZ=             10.9605 YYYX=             17.9800 YYYZ=             -0.5346 ZZZX=             -7.3795
 ZZZY=             -6.3460 XXYY=           -813.1085 XXZZ=           -675.6375 YYZZ=           -261.4670
 XXYZ=              4.7843 YYXZ=              4.6877 ZZXY=             15.3211
 N-N= 9.958225378204D+02 E-N=-4.293595470501D+03  KE= 8.981173453629D+02
   1 Symmetry operations used in ECPInt.
 ECPInt:  NShTT=    4005 NPrTT=   20559 LenC2=    3681 LenP2D=   12110.
 LDataN:  DoStor=T MaxTD1= 8 Len=  415
 Calling FoFJK, ICntrl=      2127 FMM=F ISym2X=0 I1Cent= 0 IOpClX= 0 NMat=1 NMatS=1 NMatT=0.
 Defaulting to unpruned grid for atomic number  79.
 Defaulting to unpruned grid for atomic number  79.
 Defaulting to unpruned grid for atomic number  79.
 Defaulting to unpruned grid for atomic number  79.
 Defaulting to unpruned grid for atomic number  79.
 Defaulting to unpruned grid for atomic number  79.
 Defaulting to unpruned grid for atomic number  79.
 Defaulting to unpruned grid for atomic number  79.
 ***** Axes restored to original set *****
 -------------------------------------------------------------------
 Center     Atomic                   Forces (Hartrees/Bohr)
 Number     Number              X              Y              Z
 -------------------------------------------------------------------
      1       79          -0.005448254   -0.022019477    0.011826856
      2       15          -0.006600013    0.003114560   -0.013839896
      3        6           0.004013664   -0.001370655   -0.002995637
      4        1           0.000479645    0.001512827    0.001014446
      5        1          -0.000564927   -0.000661230   -0.000032706
      6        6           0.000538008   -0.000420069   -0.002087511
      7        1          -0.000016445   -0.000988233    0.000222589
      8        1           0.001163437    0.000974289    0.001328893
      9        6          -0.001585658   -0.004572097    0.000731616
     10        1          -0.001174033   -0.000005844    0.000579574
     11        1          -0.000541419   -0.000444977   -0.000001760
     12        6          -0.000937397    0.002146968    0.001581793
     13        1           0.001074846    0.000780963    0.001292761
     14        1          -0.002248060    0.000853019    0.000270304
     15        1           0.000128874   -0.003419694    0.000562397
     16        6           0.001514793    0.003491555   -0.005534150
     17        1          -0.001152465   -0.000473718    0.001416677
     18        1           0.001057388   -0.000326024    0.000605072
     19        1          -0.000092354   -0.002216423    0.001706492
     20        6           0.000924213    0.004385133    0.000598878
     21        1          -0.001882286   -0.003799901    0.000415311
     22        1           0.000716040   -0.000332540    0.000545617
     23        1           0.000390259   -0.001160117   -0.001027487
     24        7          -0.005048621   -0.020435073   -0.001718280
     25        8           0.001597388    0.012277617   -0.006542653
     26        8           0.004216126    0.019723058   -0.002080929
     27        8           0.009477252    0.013386083    0.011161732
 -------------------------------------------------------------------
 Cartesian Forces:  Max     0.022019477 RMS     0.005602982

 GradGradGradGradGradGradGradGradGradGradGradGradGradGradGradGradGradGrad
 Berny optimization.
 FormGI is forming the generalized inverse of G from B-inverse, IUseBI=4.
 Internal  Forces:  Max     0.072646039 RMS     0.008236790
 Search for a local minimum.
 Step number   1 out of a maximum of  144
 All quantities printed in internal units (Hartrees-Bohrs-Radians)
 Mixed Optimization -- RFO/linear search
 Second derivative matrix not updated -- first step.
 ITU=  0
     Eigenvalues ---    0.00230   0.00230   0.00230   0.00307   0.00311
     Eigenvalues ---    0.00407   0.00442   0.00548   0.02825   0.03174
     Eigenvalues ---    0.03189   0.03388   0.03474   0.04694   0.04762
     Eigenvalues ---    0.04836   0.05205   0.05289   0.05328   0.05415
     Eigenvalues ---    0.05517   0.05542   0.05557   0.05676   0.06349
     Eigenvalues ---    0.06537   0.08549   0.08589   0.09069   0.12349
     Eigenvalues ---    0.12356   0.12685   0.15224   0.15662   0.16000
     Eigenvalues ---    0.16000   0.16000   0.16000   0.16000   0.16000
     Eigenvalues ---    0.16000   0.16000   0.16000   0.21220   0.21968
     Eigenvalues ---    0.21972   0.21983   0.22079   0.22246   0.22765
     Eigenvalues ---    0.24999   0.25000   0.25000   0.25000   0.28345
     Eigenvalues ---    0.28997   0.29019   0.33694   0.33754   0.33855
     Eigenvalues ---    0.33985   0.34049   0.34148   0.34156   0.34183
     Eigenvalues ---    0.34270   0.34284   0.34335   0.34382   0.34453
     Eigenvalues ---    0.34560   0.34929   0.71745   0.73585   0.85613
 RFO step:  Lambda=-3.49487640D-02 EMin= 2.30000000D-03
 Linear search not attempted -- first point.
 Maximum step size (   0.300) exceeded in Quadratic search.
    -- Step size scaled by   0.749
 Iteration  1 RMS(Cart)=  0.12042662 RMS(Int)=  0.00967053
 Iteration  2 RMS(Cart)=  0.02521990 RMS(Int)=  0.00033812
 Iteration  3 RMS(Cart)=  0.00051641 RMS(Int)=  0.00002596
 Iteration  4 RMS(Cart)=  0.00000043 RMS(Int)=  0.00002596
 Variable       Old X    -DE/DX   Delta X   Delta X   Delta X     New X
                                 (Linear)    (Quad)   (Total)
    R1        4.33270  -0.01030   0.00000  -0.03123  -0.03123   4.30147
    R2        4.70131  -0.02489   0.00000  -0.18589  -0.18589   4.51542
    R3        3.50973  -0.00112   0.00000  -0.00329  -0.00329   3.50644
    R4        3.48956   0.00205   0.00000   0.00584   0.00584   3.49540
    R5        3.50473  -0.00070   0.00000  -0.00205  -0.00205   3.50268
    R6        2.06854   0.00180   0.00000   0.00357   0.00357   2.07211
    R7        2.07022   0.00038   0.00000   0.00075   0.00075   2.07097
    R8        2.91391  -0.00415   0.00000  -0.00976  -0.00976   2.90415
    R9        2.07575  -0.00075   0.00000  -0.00151  -0.00151   2.07424
   R10        2.07356  -0.00101   0.00000  -0.00201  -0.00201   2.07155
   R11        2.90009   0.00103   0.00000   0.00237   0.00237   2.90246
   R12        2.07081   0.00028   0.00000   0.00056   0.00056   2.07138
   R13        2.07068   0.00041   0.00000   0.00081   0.00081   2.07149
   R14        2.89963   0.00004   0.00000   0.00009   0.00009   2.89972
   R15        2.06769   0.00083   0.00000   0.00164   0.00164   2.06934
   R16        2.06876   0.00032   0.00000   0.00063   0.00063   2.06939
   R17        2.07849  -0.00329   0.00000  -0.00663  -0.00663   2.07186
   R18        2.06395   0.00170   0.00000   0.00335   0.00335   2.06730
   R19        2.06573   0.00119   0.00000   0.00235   0.00235   2.06807
   R20        2.07747  -0.00274   0.00000  -0.00552  -0.00552   2.07195
   R21        2.05791   0.00375   0.00000   0.00731   0.00731   2.06521
   R22        2.06691   0.00078   0.00000   0.00153   0.00153   2.06844
   R23        2.07248  -0.00123   0.00000  -0.00245  -0.00245   2.07003
   R24        2.42700  -0.01486   0.00000  -0.01480  -0.01480   2.41220
   R25        2.35023  -0.02011   0.00000  -0.01691  -0.01691   2.33332
   R26        2.41572  -0.00272   0.00000  -0.00265  -0.00265   2.41307
    A1        2.27724   0.02417   0.00000   0.06354   0.06354   2.34078
    A2        1.97336   0.00276   0.00000   0.01615   0.01621   1.98957
    A3        1.95166   0.00002   0.00000  -0.00258  -0.00271   1.94894
    A4        1.99144  -0.00369   0.00000  -0.02052  -0.02058   1.97086
    A5        1.83909  -0.00133   0.00000   0.00029   0.00027   1.83937
    A6        1.82857   0.00127   0.00000   0.00759   0.00764   1.83621
    A7        1.86806   0.00112   0.00000   0.00046   0.00038   1.86844
    A8        1.88887   0.00046   0.00000   0.00321   0.00321   1.89207
    A9        1.86137  -0.00025   0.00000  -0.00370  -0.00370   1.85767
   A10        1.99281  -0.00074   0.00000  -0.00239  -0.00240   1.99040
   A11        1.87227  -0.00007   0.00000   0.00052   0.00052   1.87279
   A12        1.91807   0.00053   0.00000   0.00394   0.00394   1.92201
   A13        1.92585   0.00009   0.00000  -0.00154  -0.00156   1.92429
   A14        1.88645   0.00034   0.00000   0.00060   0.00060   1.88704
   A15        1.83512   0.00097   0.00000   0.00678   0.00677   1.84189
   A16        1.98967  -0.00047   0.00000  -0.00082  -0.00082   1.98885
   A17        1.87618  -0.00039   0.00000  -0.00286  -0.00286   1.87332
   A18        1.95239  -0.00037   0.00000  -0.00395  -0.00395   1.94844
   A19        1.91724  -0.00001   0.00000   0.00072   0.00072   1.91795
   A20        1.84688   0.00157   0.00000   0.00627   0.00628   1.85316
   A21        1.84815   0.00078   0.00000   0.00102   0.00101   1.84916
   A22        2.04019  -0.00313   0.00000  -0.00897  -0.00896   2.03123
   A23        1.85530  -0.00089   0.00000  -0.00350  -0.00351   1.85179
   A24        1.92824   0.00073   0.00000   0.00270   0.00271   1.93095
   A25        1.93393   0.00109   0.00000   0.00281   0.00280   1.93673
   A26        1.95650  -0.00140   0.00000  -0.00406  -0.00406   1.95244
   A27        1.95223  -0.00168   0.00000  -0.00671  -0.00671   1.94552
   A28        1.91073   0.00141   0.00000   0.00436   0.00437   1.91510
   A29        1.86690   0.00221   0.00000   0.01043   0.01043   1.87733
   A30        1.87625   0.00013   0.00000   0.00108   0.00108   1.87733
   A31        1.89867  -0.00061   0.00000  -0.00487  -0.00488   1.89379
   A32        1.91992  -0.00138   0.00000  -0.00624  -0.00624   1.91368
   A33        1.95178   0.00039   0.00000   0.00177   0.00177   1.95355
   A34        1.95212   0.00075   0.00000   0.00354   0.00353   1.95566
   A35        1.87919   0.00018   0.00000  -0.00056  -0.00056   1.87863
   A36        1.87486   0.00021   0.00000   0.00027   0.00028   1.87514
   A37        1.88276  -0.00014   0.00000   0.00115   0.00113   1.88390
   A38        1.92821   0.00203   0.00000   0.00806   0.00805   1.93626
   A39        1.91319   0.00033   0.00000   0.00190   0.00189   1.91508
   A40        1.95226   0.00063   0.00000   0.00148   0.00148   1.95374
   A41        1.88486  -0.00065   0.00000  -0.00064  -0.00066   1.88420
   A42        1.90085  -0.00179   0.00000  -0.00806  -0.00806   1.89279
   A43        1.88271  -0.00067   0.00000  -0.00313  -0.00313   1.87958
   A44        2.08978   0.01931   0.00000   0.05077   0.05076   2.14054
   A45        2.07604  -0.03338   0.00000  -0.08777  -0.08777   1.98827
   A46        2.11732   0.01408   0.00000   0.03703   0.03703   2.15435
   A47        1.77833  -0.07265   0.00000  -0.19100  -0.19100   1.58733
    D1       -2.96736  -0.00046   0.00000  -0.00281  -0.00275  -2.97011
    D2        1.24339  -0.00067   0.00000  -0.01251  -0.01246   1.23093
    D3       -0.87985   0.00057   0.00000   0.00418   0.00408  -0.87577
    D4       -3.12190   0.00057   0.00000   0.01147   0.01147  -3.11043
    D5       -3.12150  -0.00101   0.00000  -0.00600  -0.00598  -3.12748
    D6        1.15221  -0.00103   0.00000  -0.00629  -0.00626   1.14595
    D7       -0.97956  -0.00050   0.00000  -0.00016  -0.00014  -0.97970
    D8       -0.98492  -0.00024   0.00000   0.00063   0.00064  -0.98429
    D9       -2.99440  -0.00026   0.00000   0.00034   0.00035  -2.99405
   D10        1.15702   0.00027   0.00000   0.00647   0.00648   1.16349
   D11        0.98286   0.00099   0.00000   0.00435   0.00432   0.98717
   D12       -1.02662   0.00098   0.00000   0.00406   0.00403  -1.02259
   D13        3.12480   0.00151   0.00000   0.01019   0.01016   3.13495
   D14        2.99400   0.00252   0.00000   0.01984   0.01986   3.01385
   D15        0.99410   0.00234   0.00000   0.01956   0.01958   1.01368
   D16       -1.10673   0.00196   0.00000   0.01456   0.01458  -1.09215
   D17        0.84352  -0.00001   0.00000   0.00134   0.00134   0.84486
   D18       -1.15638  -0.00019   0.00000   0.00106   0.00107  -1.15532
   D19        3.02598  -0.00057   0.00000  -0.00394  -0.00394   3.02204
   D20       -1.09634  -0.00133   0.00000  -0.00752  -0.00754  -1.10388
   D21       -3.09624  -0.00151   0.00000  -0.00779  -0.00781  -3.10405
   D22        1.08612  -0.00189   0.00000  -0.01279  -0.01281   1.07331
   D23        0.90759  -0.00129   0.00000  -0.01138  -0.01132   0.89627
   D24       -1.05731  -0.00129   0.00000  -0.01054  -0.01049  -1.06780
   D25        3.06250  -0.00120   0.00000  -0.00891  -0.00887   3.05363
   D26        3.07494   0.00081   0.00000   0.00166   0.00164   3.07658
   D27        1.11004   0.00081   0.00000   0.00249   0.00247   1.11251
   D28       -1.05334   0.00090   0.00000   0.00412   0.00409  -1.04925
   D29       -1.26114   0.00033   0.00000   0.00546   0.00544  -1.25571
   D30        3.05714   0.00034   0.00000   0.00629   0.00626   3.06341
   D31        0.89377   0.00043   0.00000   0.00792   0.00789   0.90165
   D32       -1.11787  -0.00052   0.00000  -0.00463  -0.00463  -1.12250
   D33        0.97904   0.00017   0.00000   0.00123   0.00123   0.98026
   D34        3.08487  -0.00073   0.00000  -0.00631  -0.00631   3.07856
   D35        1.00809  -0.00005   0.00000   0.00082   0.00082   1.00891
   D36        3.10499   0.00064   0.00000   0.00668   0.00668   3.11167
   D37       -1.07236  -0.00026   0.00000  -0.00085  -0.00085  -1.07321
   D38        3.06928   0.00025   0.00000   0.00293   0.00293   3.07221
   D39       -1.11699   0.00094   0.00000   0.00879   0.00879  -1.10820
   D40        0.98884   0.00004   0.00000   0.00126   0.00126   0.99009
   D41        1.04950  -0.00010   0.00000  -0.00129  -0.00130   1.04820
   D42        3.12459   0.00056   0.00000   0.00405   0.00406   3.12865
   D43       -1.07112   0.00034   0.00000   0.00234   0.00234  -1.06879
   D44       -3.08674  -0.00029   0.00000  -0.00424  -0.00425  -3.09098
   D45       -1.01164   0.00036   0.00000   0.00110   0.00111  -1.01053
   D46        1.07583   0.00014   0.00000  -0.00061  -0.00061   1.07522
   D47       -1.00467  -0.00102   0.00000  -0.00987  -0.00987  -1.01454
   D48        1.07042  -0.00037   0.00000  -0.00452  -0.00451   1.06591
   D49       -3.12529  -0.00059   0.00000  -0.00624  -0.00624  -3.13153
   D50        3.12585  -0.00014   0.00000  -0.00085  -0.00086   3.12499
   D51       -1.07011  -0.00058   0.00000  -0.00458  -0.00458  -1.07469
   D52        1.04383   0.00004   0.00000   0.00067   0.00068   1.04451
   D53       -1.04471   0.00025   0.00000   0.00313   0.00313  -1.04158
   D54        1.04252  -0.00020   0.00000  -0.00059  -0.00060   1.04193
   D55       -3.12672   0.00042   0.00000   0.00466   0.00466  -3.12206
   D56        1.00684   0.00028   0.00000   0.00222   0.00222   1.00906
   D57        3.09407  -0.00017   0.00000  -0.00150  -0.00150   3.09256
   D58       -1.07518   0.00045   0.00000   0.00375   0.00375  -1.07142
   D59        3.09441   0.00173   0.00000   0.01959   0.01951   3.11392
   D60       -0.03685   0.00130   0.00000   0.01640   0.01648  -0.02037
   D61       -3.13101  -0.00015   0.00000  -0.00251  -0.00258  -3.13359
         Item               Value     Threshold  Converged?
 Maximum Force            0.072646     0.000450     NO 
 RMS     Force            0.008237     0.000300     NO 
 Maximum Displacement     0.875936     0.001800     NO 
 RMS     Displacement     0.141366     0.001200     NO 
 Predicted change in Energy=-1.800690D-02
 GradGradGradGradGradGradGradGradGradGradGradGradGradGradGradGradGradGrad

                          Input orientation:                          
 ---------------------------------------------------------------------
 Center     Atomic      Atomic             Coordinates (Angstroms)
 Number     Number       Type             X           Y           Z
 ---------------------------------------------------------------------
      1         79           0        3.118054   -0.219200    0.073644
      2         15           0        4.180351    1.555399    1.024218
      3          6           0        4.021071    3.133953    0.062046
      4          1           0        4.574726    3.919040    0.590672
      5          1           0        2.960385    3.408193    0.089552
      6          6           0        5.999165    1.258105    1.181921
      7          1           0        6.469343    2.190338    1.520580
      8          1           0        6.354397    1.064518    0.163086
      9          6           0        3.545557    1.953224    2.719617
     10          1           0        3.569165    1.013215    3.282927
     11          1           0        2.486273    2.205304    2.593155
     12          6           0        4.506762    3.032356   -1.392452
     13          1           0        5.580990    2.827901   -1.450385
     14          1           0        3.988680    2.233334   -1.933137
     15          1           0        4.321940    3.980295   -1.911396
     16          6           0        4.285964    3.059654    3.482632
     17          1           0        3.812527    3.214920    4.456548
     18          1           0        5.334484    2.801858    3.660973
     19          1           0        4.259677    4.016665    2.948218
     20          6           0        6.361117    0.077111    2.094763
     21          1           0        5.929326   -0.853776    1.718788
     22          1           0        7.448409   -0.044465    2.127956
     23          1           0        6.011896    0.231381    3.121493
     24          7           0        2.073057   -2.706807   -0.325828
     25          8           0        2.608347   -2.437377    0.801239
     26          8           0        1.604663   -3.817787   -0.592124
     27          8           0        2.075811   -1.729122   -1.147235
 ---------------------------------------------------------------------
                    Distance matrix (angstroms):
                    1          2          3          4          5
     1  Au   0.000000
     2  P    2.276239   0.000000
     3  C    3.472637   1.855527   0.000000
     4  H    4.417492   2.435219   1.096513   0.000000
     5  H    3.630853   2.407232   1.095910   1.765837   0.000000
     6  C    3.422208   1.849686   2.947165   3.075577   3.879476
     7  H    4.373858   2.426728   3.001961   2.728133   3.980427
     8  H    3.482793   2.389349   3.120445   3.390922   4.125232
     9  C    3.450124   1.853539   2.946680   3.075066   3.062124
    10  H    3.467253   2.401932   3.882760   4.086955   4.037843
    11  H    3.553210   2.398716   3.102339   3.362805   2.817756
    12  C    3.827606   2.851008   1.536809   2.173387   2.174597
    13  H    4.203991   3.115239   2.194188   2.523701   3.094465
    14  H    3.286348   3.040113   2.189273   3.091062   2.555182
    15  H    4.798488   3.810250   2.168246   2.515552   2.486952
    16  C    4.871970   2.884049   3.431632   3.030736   3.659457
    17  H    5.611177   3.830168   4.400192   4.002715   4.453554
    18  H    5.187319   3.136584   3.845467   3.354411   4.331170
    19  H    5.244905   3.125044   3.027558   2.380506   3.198495
    20  C    3.832776   2.843789   4.353394   4.495987   5.165457
    21  H    3.318499   3.057035   4.721039   5.087962   5.443657
    22  H    4.796113   3.802368   5.110477   5.131342   6.018164
    23  H    4.226905   3.083203   4.663532   4.697802   5.347571
    24  N    2.727598   4.942642   6.169253   7.141440   6.192990
    25  O    2.389457   4.296880   5.794991   6.656953   5.899247
    26  O    3.960231   6.173966   7.388752   8.371306   7.383594
    27  O    2.203788   4.464569   5.375491   6.416123   5.357623
                    6          7          8          9         10
     6  C    0.000000
     7  H    1.097642   0.000000
     8  H    1.096216   1.767335   0.000000
     9  C    2.977901   3.168981   3.900671   0.000000
    10  H    3.221661   3.592008   4.182530   1.096125   0.000000
    11  H    3.902458   4.124983   4.708398   1.096184   1.752004
    12  C    3.464481   3.611991   3.115420   4.358619   5.178339
    13  H    3.093244   3.165800   2.512163   4.721966   5.453876
    14  H    3.833628   4.252494   3.370000   4.682194   5.373268
    15  H    4.448822   4.426483   4.115351   5.114497   6.029198
    16  C    3.387316   3.061455   4.390714   1.534465   2.177520
    17  H    4.397010   4.090030   5.433153   2.163348   2.506813
    18  H    2.995109   2.498628   4.036556   2.192394   2.541360
    19  H    3.708811   3.202537   4.567273   2.195454   3.099928
    20  C    1.535916   2.192517   2.169423   3.440584   3.175377
    21  H    2.180171   3.097989   2.506142   3.816184   3.391540
    22  H    2.166098   2.514324   2.507473   4.424147   4.183441
    23  H    2.194599   2.570932   3.092507   3.034646   2.569876
    24  N    5.779979   6.835100   5.726413   5.758375   5.394443
    25  O    5.029826   6.069637   5.167534   4.882204   4.357583
    26  O    6.944319   8.014125   6.853264   6.931036   6.497220
    27  O    5.453549   6.463941   5.275194   5.538264   5.420042
                   11         12         13         14         15
    11  H    0.000000
    12  C    4.544387   0.000000
    13  H    5.129826   1.095046   0.000000
    14  H    4.769207   1.095073   1.766921   0.000000
    15  H    5.177958   1.096380   1.767979   1.778597   0.000000
    16  C    2.181735   4.880158   5.105434   5.486505   5.472149
    17  H    2.500100   5.892885   6.178114   6.467040   6.433973
    18  H    3.099745   5.125950   5.117365   5.781736   5.784917
    19  H    2.559699   4.457728   4.744126   5.203973   4.860149
    20  C    4.448822   4.932826   4.554505   5.147983   5.953352
    21  H    4.687974   5.177406   4.870291   5.160709   6.255411
    22  H    5.468150   5.523893   4.954015   5.800911   6.503066
    23  H    4.074989   5.521467   5.275382   5.800906   6.499253
    24  N    5.728879   6.324445   6.648550   5.536971   7.231102
    25  O    4.977987   6.191465   6.452098   5.585488   7.175048
    26  O    6.870289   7.482457   7.791852   6.640627   8.362665
    27  O    5.444145   5.351760   5.757138   4.469650   6.182757
                   16         17         18         19         20
    16  C    0.000000
    17  H    1.093966   0.000000
    18  H    1.094377   1.766328   0.000000
    19  H    1.096431   1.765729   1.771719   0.000000
    20  C    3.889474   4.681793   3.306242   4.545825   0.000000
    21  H    4.596381   5.341390   4.182054   5.293432   1.092863
    22  H    4.633764   5.409766   3.862690   5.228157   1.094572
    23  H    3.332926   3.939683   2.712430   4.174766   1.095413
    24  N    7.256266   7.807927   7.541676   7.791391   5.656581
    25  O    6.342051   6.838113   6.561973   6.999363   4.698843
    26  O    8.431619   8.934356   8.707474   8.997876   6.709206
    27  O    7.018035   7.672165   7.366654   7.386209   5.668939
                   21         22         23         24         25
    21  H    0.000000
    22  H    1.769185   0.000000
    23  H    1.775377   1.768269   0.000000
    24  N    4.741834   6.481013   6.002618   0.000000
    25  O    3.791911   5.559892   4.908156   1.276483   0.000000
    26  O    5.729606   7.469013   7.043466   1.234740   2.203264
    27  O    4.881587   6.513812   6.128489   1.276943   2.140507
                   26         27
    26  O    0.000000
    27  O    2.211933   0.000000
 Stoichiometry    C6H15AuNO3P
 Framework group  C1[X(C6H15AuNO3P)]
 Deg. of freedom    75
 Full point group                 C1      NOp   1
 Largest Abelian subgroup         C1      NOp   1
 Largest concise Abelian subgroup C1      NOp   1
                         Standard orientation:                         
 ---------------------------------------------------------------------
 Center     Atomic      Atomic             Coordinates (Angstroms)
 Number     Number       Type             X           Y           Z
 ---------------------------------------------------------------------
      1         79           0        0.635238    0.235050   -0.079203
      2         15           0       -1.630900    0.021216   -0.066511
      3          6           0       -2.540842    1.617138   -0.327318
      4          1           0       -3.617353    1.412018   -0.290047
      5          1           0       -2.306535    1.944702   -1.346544
      6          6           0       -2.245786   -0.635949    1.549467
      7          1           0       -3.342501   -0.591671    1.540909
      8          1           0       -1.896145    0.074595    2.307470
      9          6           0       -2.256063   -1.116707   -1.389352
     10          1           0       -1.679286   -2.043757   -1.292407
     11          1           0       -1.951585   -0.667445   -2.341758
     12          6           0       -2.177017    2.717464    0.681987
     13          1           0       -2.464812    2.445710    1.702990
     14          1           0       -1.100644    2.918961    0.684614
     15          1           0       -2.703892    3.644040    0.425259
     16          6           0       -3.761635   -1.412871   -1.378417
     17          1           0       -4.011737   -2.077768   -2.210356
     18          1           0       -4.074263   -1.907112   -0.453404
     19          1           0       -4.361155   -0.502167   -1.493985
     20          6           0       -1.738532   -2.046933    1.882415
     21          1           0       -0.647272   -2.066601    1.938222
     22          1           0       -2.131848   -2.361135    2.854355
     23          1           0       -2.060947   -2.783847    1.138819
     24          7           0        3.296974   -0.360581   -0.066124
     25          8           0        2.452213   -1.316382   -0.113350
[...]
 0.00003023,0.00001638,-0.00001554,0.00000923,0.00006020,-0.00001641,0.
 02191414,0.50802957,-0.00001620,-0.00032716,-0.00031290,-0.00654072,0.
 00132427,-0.00081593,0.00180572,-0.00068828,-0.00000310,-0.00003037,0.
 00037120,-0.00006693,0.00023159,-0.00038793,0.00054826,-0.00828424,0.0
 4972561,-0.11700911,0.00308169,-0.00886493,0.00745893,-0.00736670,0.02
 760816,-0.01813512,0.00004323,-0.00080262,0.00098922,0.00065725,0.0003
 6995,-0.00037487,0.00000690,0.00008644,-0.00046858,0.00031699,-0.00000
 406,-0.00022081,-0.00024374,-0.00004304,0.00014642,-0.00002698,0.00001
 927,0.00002260,-0.00014171,0.00005857,0.00007488,0.00021113,0.00008451
 ,-0.00042148,0.00004942,-0.00007708,-0.00005741,-0.00012294,-0.0003648
 8,0.00021058,-0.00010449,0.00020036,0.00000586,-0.01165435,0.05135508,
 0.54512992,-0.00021889,-0.00027063,-0.00016029,0.00103214,0.00127227,0
 .00056223,0.00006700,0.00007164,-0.00006811,-0.00009535,-0.00006929,-0
 .00002456,-0.00002198,-0.00004365,0.00001948,0.00276546,0.00743815,0.0
 0349793,0.00036568,0.00170098,-0.00099819,-0.00002336,-0.00047624,0.00
 015462,-0.00008952,-0.00005016,-0.00004313,0.00002966,0.00000535,0.000
 02945,-0.00004296,-0.00000624,0.00001158,0.00003192,-0.00003147,-0.000
 00495,-0.00002718,-0.00000102,0.00000980,-0.00000023,0.00000127,-0.000
 03087,-0.00001668,-0.00000079,0.00001652,0.00009369,0.00001352,-0.0000
 4746,-0.00002474,-0.00002336,-0.00001067,-0.00004460,-0.00008785,-0.00
 003761,-0.00003588,-0.00001562,-0.00000479,-0.10972454,-0.10279463,-0.
 04454248,0.11476186,0.00020856,0.00021635,-0.00009138,-0.00149978,-0.0
 0078022,-0.00108879,0.00022565,0.00014862,0.00037880,-0.00002942,0.000
 31156,-0.00011231,0.00003719,0.00003225,0.00003877,-0.01034735,-0.0224
 9301,-0.00806907,0.00145036,-0.00303900,0.00367129,-0.00011231,0.00101
 783,-0.00009149,0.00031351,0.00003262,0.00008105,0.00001066,-0.0000546
 6,-0.00007016,0.00003270,-0.00001134,-0.00007578,-0.00004375,0.0000187
 1,0.00003004,0.00002008,-0.00003220,-0.00005146,0.00001809,-0.00002116
 ,0.00004575,0.00001704,0.00000585,-0.00000427,-0.00016144,0.00005254,0
 .00001407,0.00007760,0.00002733,0.00001703,0.00005821,0.00003379,0.000
 10016,0.00000349,0.00002767,0.00001099,-0.10167229,-0.22398345,-0.0774
 8165,0.10988846,0.24475038,-0.00022431,0.00004244,-0.00014407,0.000627
 24,0.00009318,0.00061619,0.00013215,0.00006518,-0.00003657,-0.00004503
 ,-0.00009882,-0.00003977,-0.00002996,-0.00005318,-0.00001066,0.0101168
 9,0.01782995,0.00750361,-0.00122001,0.00399287,-0.00203797,0.00052984,
 -0.00038327,0.00081955,-0.00008862,-0.00006403,-0.00005677,-0.00005067
 ,-0.00013989,-0.00007840,0.00000281,-0.00000234,0.00007014,-0.00001341
 ,-0.00002103,0.00000817,0.00000908,0.00002857,0.00001786,-0.00001186,0
 .00000344,-0.00001221,0.00000200,-0.00000369,-0.00000450,-0.00010115,0
 .00002371,0.00005114,-0.00002179,-0.00000442,0.00001261,0.00004483,0.0
 0015179,-0.00005367,0.00009357,-0.00003996,0.00001546,-0.04479302,-0.0
 7898149,-0.08526306,0.05013998,0.08137650,0.08901703,-0.00001729,0.000
 23902,-0.00006126,0.00189298,0.00008718,-0.00021484,-0.00026275,-0.000
 20006,0.00030882,0.00000177,0.00004245,-0.00002173,0.00002052,0.000100
 51,-0.00009231,-0.00381347,0.00143325,-0.00089606,0.00052580,0.0003356
 4,0.00004580,0.00048069,-0.00009632,-0.00038521,0.00002738,-0.00012063
 ,-0.00002809,0.00007517,0.00001196,-0.00008034,-0.00000493,0.00005604,
 -0.00002316,-0.00002588,0.00006138,0.00002882,0.00001203,-0.00001605,0
 .00001077,-0.00000296,-0.00001476,0.00000790,0.00000579,0.00000158,-0.
 00003725,-0.00005551,-0.00001007,-0.00001415,-0.00000116,0.00001775,0.
 00002324,-0.00001558,-0.00001862,-0.00001813,0.00001482,0.00001621,-0.
 00000228,-0.30802137,0.04696175,-0.00114717,-0.01400153,0.00289766,0.0
 0077575,0.33164907,0.00007100,0.00000133,-0.00017437,-0.00166433,-0.00
 340277,0.00234908,0.00208262,-0.00006226,0.00002416,-0.00005912,0.0001
 4053,-0.00011601,-0.00005815,-0.00056075,0.00043611,0.02728172,-0.0078
 5136,0.00245650,-0.00002219,0.00080436,-0.00089881,-0.00047950,0.00126
 148,-0.00064838,0.00004169,0.00017958,0.00008871,0.00001104,-0.0000670
 6,-0.00010274,-0.00000700,0.00000149,-0.00007553,0.00003345,-0.0000692
 0,-0.00015799,-0.00003469,0.00004851,0.00002161,-0.00000683,0.00000600
 ,0.00002895,-0.00002593,0.00000702,0.00006511,0.00009339,0.00003933,0.
 00004413,-0.00001798,-0.00001836,-0.00002576,-0.00001262,0.00000238,0.
 00000106,-0.00000828,0.00002444,0.00001630,0.04661005,-0.05599705,-0.0
 0092778,-0.02684890,0.00681201,0.00120285,-0.05244236,0.06029207,-0.00
 004114,0.00004831,0.00014783,0.00095969,0.00258458,-0.00231288,-0.0014
 7525,0.00028931,0.00030047,0.00003605,-0.00003674,0.00003534,0.0000025
 7,0.00043472,-0.00032335,-0.02008873,0.00511671,-0.00195326,0.00046827
 ,-0.00059078,0.00058911,-0.00035829,-0.00082830,0.00065883,0.00004191,
 0.00016799,-0.00020171,-0.00028128,-0.00011218,0.00029312,-0.00001303,
 -0.00010585,0.00018035,-0.00007040,-0.00000212,0.00016215,0.00005123,-
 0.00002870,-0.00001734,-0.00000130,-0.00001267,-0.00001299,0.00002517,
 -0.00000782,-0.00003412,-0.00004977,-0.00002148,0.00011031,0.00002105,
 0.00002525,0.00002023,0.00007932,0.00006512,0.00000214,0.00000180,-0.0
 0006845,-0.00001887,-0.00097511,-0.00095966,-0.04848599,-0.01214711,0.
 00290163,-0.00037187,0.00178365,-0.00333587,0.04995192,0.00007506,-0.0
 0008349,0.00016708,0.00035350,-0.00022535,-0.00127127,0.00010574,0.000
 06271,0.00005317,-0.00000319,-0.00002451,-0.00000005,-0.00000614,-0.00
 004193,0.00003385,0.00150798,-0.00177732,-0.00763183,-0.00007104,-0.00
 023880,0.00057349,0.00053252,0.00132273,-0.00115492,0.00025109,0.00025
 172,0.00004473,-0.00079542,0.00039972,0.00025343,0.00000520,-0.0001943
 0,-0.00008093,0.00003144,-0.00004935,-0.00003400,-0.00003507,0.0000021
 5,0.00003264,-0.00000648,0.00000462,-0.00000559,-0.00002569,0.00000849
 ,0.00003517,0.00017797,0.00004720,0.00010575,-0.00002600,-0.00000416,-
 0.00001874,-0.00005221,-0.00005634,0.00000142,-0.00006186,-0.00004841,
 -0.00003243,-0.07344501,0.01224377,0.07378368,0.00528446,-0.00138045,-
 0.01601357,-0.00841841,0.00548336,0.03205698,0.07463035,0.00017548,-0.
 00009763,-0.00003099,-0.00076793,0.00073599,0.00075381,-0.00014707,0.0
 0000052,-0.00004233,-0.00003252,0.00000181,0.00001780,0.00002660,0.000
 02203,-0.00005586,-0.00843569,0.00459079,0.02727228,-0.00043654,0.0013
 4510,-0.00071518,0.00147736,-0.00453475,0.00370620,0.00022530,0.000106
 74,-0.00002569,0.00046018,-0.00012122,-0.00007676,-0.00005906,0.000032
 41,-0.00009076,-0.00015031,0.00001513,0.00008459,0.00011606,0.00000262
 ,-0.00011905,0.00002622,-0.00000846,-0.00000346,0.00007880,-0.00002833
 ,-0.00002692,0.00035757,-0.00006649,-0.00004023,-0.00007396,0.00001061
 ,-0.00001424,-0.00022026,-0.00031825,-0.00003092,-0.00015642,0.0000763
 1,-0.00000138,0.01241956,-0.05690683,-0.04159295,0.01014547,-0.0028745
 6,-0.02499236,0.00086653,-0.00173552,-0.00536448,-0.01576109,0.0597410
 1,-0.00017428,0.00002625,0.00020945,0.00169966,-0.00035603,-0.00147867
 ,-0.00024883,0.00017384,0.00015427,0.00004467,-0.00004820,-0.00001566,
 -0.00004871,0.00007115,-0.00003900,0.00376595,-0.00231815,-0.01630182,
 0.00009980,0.00011510,0.00070384,-0.00105211,0.00339610,-0.00065858,0.
 00012862,0.00037133,-0.00034681,-0.00040853,-0.00027864,0.00061285,-0.
 00001271,-0.00019250,0.00029295,0.00011330,-0.00007650,-0.00000322,-0.
 00009118,-0.00001289,0.00010538,-0.00001899,0.00000152,-0.00000242,-0.
 00005936,0.00003195,0.00003549,-0.00016670,-0.00001386,0.00026436,0.00
 006139,0.00001218,0.00002009,0.00011017,0.00021202,-0.00001567,0.00004
 874,-0.00010821,-0.00001594,0.07345091,-0.04049676,-0.28318925,0.00356
 381,-0.00155026,-0.00989851,0.00013606,-0.00027746,0.00138123,-0.08089
 370,0.04137656,0.30821305,0.03158665,-0.01357047,0.00822983,-0.0058465
 5,0.00009726,-0.00288872,-0.00045330,-0.00015566,-0.00028764,0.0002316
 2,-0.00027823,0.00007729,0.00004839,-0.00012617,0.00006564,-0.00035535
 ,-0.00222289,-0.00074241,-0.00104293,0.00060300,-0.00011532,-0.0000961
 6,-0.00026843,0.00000258,-0.00114625,-0.00097900,0.00009626,0.00007505
 ,0.00003016,0.00009692,0.00014604,0.00000282,-0.00008697,0.00029529,0.
 00009263,0.00007466,-0.00011900,-0.00001845,-0.00003442,-0.00004392,-0
 .00006426,-0.00003301,-0.00004809,-0.00000615,0.00002751,0.00061148,-0
 .00006667,-0.00041021,-0.00011750,-0.00019277,-0.00011053,-0.00007513,
 0.00000392,0.00003898,-0.00002952,0.00000143,0.00000868,-0.00068841,-0
 .00110540,-0.00001776,-0.00000079,-0.00017974,-0.00037288,-0.00008078,
 0.00023459,-0.00013990,0.00012807,0.00028486,0.00018218,0.79281931,-0.
 01558061,-0.03901585,-0.01420100,-0.00568767,-0.00505057,-0.00323102,0
 .00201663,0.00110733,0.00157978,-0.00004318,0.00104539,-0.00062382,-0.
 00005522,-0.00017368,-0.00001917,0.00020248,0.00184061,0.00088101,0.00
 103351,-0.00032762,0.00024613,-0.00018042,0.00001151,0.00002565,0.0023
 8187,0.00210268,0.00000643,-0.00004042,-0.00007533,-0.00026605,0.00004
 347,-0.00015688,-0.00019808,-0.00054880,0.00011219,0.00002350,0.000111
 79,-0.00012168,0.00006704,0.00014300,-0.00018184,0.00045363,0.00013615
 ,0.00030578,-0.00015628,-0.00106948,-0.00022509,0.00097584,0.00023858,
 0.00046634,0.00039539,0.00017088,0.00001689,-0.00008262,0.00008990,0.0
 0005125,-0.00012403,0.00055923,0.00043471,-0.00034692,-0.00034285,0.00
 037746,0.00009909,0.00035470,-0.00011278,0.00019823,-0.00017302,-0.000
 07834,-0.00001878,0.14115879,0.72649150,0.00775708,-0.01354271,-0.0040
 1995,-0.00404653,-0.00165795,-0.00003298,0.00031869,0.00009913,0.00016
 917,0.00008675,0.00013022,-0.00012018,-0.00000223,-0.00011814,0.000012
 02,-0.00012609,-0.00045777,-0.00021800,-0.00015744,0.00015178,-0.00004
 732,0.00004452,-0.00008421,0.00000743,0.00042957,0.00046711,0.00009178
 ,0.00004223,-0.00002095,-0.00011133,0.00005432,-0.00000307,-0.00004737
 ,-0.00004702,0.00010526,0.00000415,0.00003115,-0.00001444,0.00000966,-
 0.00002423,-0.00005754,0.00015012,0.00002752,0.00006754,-0.00004523,-0
 .00016482,-0.00004456,0.00016853,0.00004227,0.00007389,0.00007264,0.00
 001964,-0.00000672,-0.00000534,0.00001557,0.00003329,-0.00002568,-0.00
 009660,-0.00026842,-0.00007584,-0.00007705,0.00010964,-0.00004792,0.00
 008009,0.00007666,-0.00000384,-0.00002359,0.00005845,0.00001545,0.2116
 9930,0.16361888,0.37388029,-0.01288323,-0.00023679,-0.00378793,0.00134
 323,-0.00042700,0.00033009,0.00028496,0.00008704,0.00013931,-0.0001030
 5,0.00012721,-0.00003410,-0.00001877,0.00001755,-0.00001801,0.00005000
 ,0.00078544,0.00026535,0.00040566,-0.00031068,0.00007369,0.00006338,0.
 00017659,-0.00000320,0.00042582,0.00026936,-0.00003000,-0.00006156,-0.
 00000544,-0.00001677,-0.00005538,-0.00002325,0.00001418,-0.00014529,-0
 .00005595,-0.00004215,0.00008521,0.00003217,0.00001350,-0.00002102,0.0
 0005705,0.00002734,0.00002214,-0.00001649,0.00000086,-0.00021651,0.000
 04576,0.00011390,0.00004207,0.00005486,0.00002161,0.00004360,0.0000111
 8,0.00000216,0.00000934,-0.00000718,0.00000750,0.00055058,0.00077113,0
 .00004618,-0.00001999,0.00013186,0.00031937,0.00002812,-0.00014008,0.0
 0007510,-0.00008937,-0.00021798,-0.00014171,-0.42344951,0.00818752,-0.
 10822397,0.55377811,-0.00213532,-0.00282264,-0.00098558,0.00412645,0.0
 0135006,0.00159733,-0.00075437,-0.00037533,-0.00053140,-0.00008066,-0.
 00034759,0.00025167,-0.00001050,0.00021397,-0.00003166,0.00000019,-0.0
 0041496,-0.00023755,-0.00029439,0.00011535,-0.00007234,-0.00000993,-0.
 00000815,-0.00000279,-0.00068013,-0.00062730,-0.00006944,0.00000766,-0
 .00000866,0.00000952,-0.00010433,0.00010660,0.00016003,0.00011492,-0.0
 0005525,-0.00006917,-0.00006760,0.00001401,-0.00000474,0.00003642,0.00
 005821,-0.00016202,-0.00003870,-0.00007506,0.00006231,0.00024619,0.000
 12356,-0.00030242,-0.00006632,-0.00013395,-0.00011926,-0.00007333,-0.0
 0002950,0.00000662,-0.00001933,-0.00000129,0.00004385,-0.00023035,-0.0
 0019643,0.00010293,0.00007158,-0.00017679,-0.00006011,-0.00009963,0.00
 006972,-0.00006833,0.00003870,0.00001051,-0.00000490,0.02554359,-0.139
 48350,-0.00365739,-0.02746534,0.13148376,-0.00430787,-0.00037013,-0.00
 320039,0.00133639,0.00002669,0.00103122,-0.00021113,-0.00011332,-0.000
 17752,-0.00005848,-0.00009197,0.00009856,-0.00000757,0.00007433,0.0000
 0224,-0.00002251,0.00013518,-0.00006309,0.00006885,-0.00010199,0.00005
 331,-0.00002090,-0.00000932,0.00001691,0.00011582,0.00011735,-0.000023
 73,-0.00002255,0.00001088,0.00000673,-0.00003283,-0.00001340,0.0000183
 4,-0.00000060,-0.00006480,-0.00005288,-0.00003852,-0.00001599,-0.00001
 153,0.00006714,0.00001721,-0.00008416,-0.00001625,-0.00002174,0.000028
 50,-0.00004870,0.00001428,0.00002632,0.00001037,0.00001224,-0.00001062
 ,0.00000617,0.00000496,0.00000017,-0.00000241,-0.00000797,0.00001265,0
 .00014175,0.00034170,0.00013499,0.00009881,0.00000549,-0.00008533,-0.0
 0005525,-0.00008776,-0.00001297,-0.00000796,-0.00002617,-0.00000215,-0
 .10373678,-0.00935626,-0.12830724,0.16600892,0.01576378,0.09191363,-0.
 00450757,0.00327750,-0.00204078,0.00196246,0.00161048,0.00150680,-0.00
 012561,-0.00010106,-0.00016029,-0.00006636,-0.00007718,0.00007135,-0.0
 0000459,0.00005146,-0.00000231,-0.00003014,0.00008942,-0.00005533,0.00
 004876,-0.00011897,-0.00000414,0.00007804,0.00008783,-0.00000535,0.000
 01444,-0.00004035,0.00001339,-0.00002668,0.00000540,0.00003468,-0.0000
 4175,0.00001540,0.00003656,-0.00000257,-0.00005794,-0.00003680,0.00001
 359,0.00002516,-0.00001067,-0.00000368,0.00005422,-0.00009366,-0.00001
 080,-0.00005627,0.00002424,-0.00000206,0.00005526,-0.00003013,-0.00000
 112,-0.00002299,-0.00003643,-0.00000210,0.00000005,0.00001152,-0.00000
 902,-0.00001257,0.00001895,0.00017551,0.00033005,0.00009666,0.00007149
 ,-0.00000656,0.00015314,-0.00004547,-0.00006599,0.00000401,-0.00001962
 ,-0.00010275,-0.00007430,-0.23618228,-0.17174722,-0.09066517,-0.065535
 31,-0.06603583,-0.04873110,0.26960798,0.00767194,0.00440948,0.00260014
 ,0.00096708,0.00362680,0.00143782,-0.00075186,-0.00044349,-0.00071632,
 -0.00000828,-0.00045344,0.00028864,0.00003134,0.00007593,0.00003893,-0
 .00032523,-0.00150676,-0.00071653,-0.00069531,0.00015281,-0.00010204,0
 .00012899,0.00005187,-0.00000612,-0.00092743,-0.00093360,0.00008315,-0
 .00001562,0.00002561,0.00012780,-0.00001350,0.00004811,0.00006179,0.00
 020955,-0.00009225,-0.00005011,-0.00004188,0.00005839,-0.00004222,-0.0
 0005024,0.00009613,-0.00024041,-0.00006292,-0.00015810,0.00009888,0.00
 048065,0.00013045,-0.00044759,-0.00010134,-0.00022545,-0.00019848,-0.0
 0006581,0.00000305,0.00006171,-0.00004334,-0.00002732,0.00006740,-0.00
 005562,-0.00000461,0.00026896,0.00020786,-0.00013901,0.00007968,-0.000
 18274,0.00001740,-0.00009515,0.00004443,-0.00003921,-0.00005760,-0.176
 16019,-0.38938077,-0.13297290,-0.04160922,0.01253080,-0.01851551,0.223
 81752,0.47461210,-0.00095024,0.00118604,0.00412751,0.00132797,0.001774
 79,-0.00041494,-0.00011230,-0.00001473,-0.00008673,-0.00003174,-0.0000
 7628,0.00005770,0.00000337,0.00003999,0.00001009,-0.00006860,-0.000273
 88,-0.00010986,-0.00013034,-0.00001252,-0.00001044,0.00001975,0.000055
 87,-0.00000044,-0.00045166,-0.00050757,-0.00001631,-0.00002703,0.00001
 363,0.00008444,-0.00002231,0.00001914,0.00003707,0.00005973,-0.0000644
 1,0.00001117,-0.00000932,0.00002419,-0.00001389,-0.00001577,0.00004141
 ,-0.00009642,-0.00002274,-0.00006274,0.00003628,0.00019509,0.00005544,
 -0.00019849,-0.00004725,-0.00009065,-0.00007243,-0.00002255,0.00000421
 ,0.00001667,-0.00001395,-0.00002356,0.00002344,0.00006088,0.00007366,0
 .00008097,0.00006781,-0.00004085,0.00007768,-0.00005923,-0.00001413,-0
 .00001674,0.00000679,-0.00004427,-0.00002670,-0.09182006,-0.13153824,-
 0.15676330,-0.04253062,-0.02659402,0.01032376,0.13408291,0.18487026,0.
 12633156,-0.06521089,-0.03284222,-0.02251259,0.00757325,-0.00654381,-0
 .00229575,-0.00099654,-0.00052311,-0.00073815,0.00006186,-0.00025149,0
 .00032184,0.00002527,0.00007432,-0.00009762,0.00090449,0.00225405,0.00
 106210,0.00096704,-0.00027415,0.00014492,-0.00014756,0.00011632,-0.000
 01611,-0.00147595,-0.00114471,-0.00020331,-0.00002982,0.00004471,-0.00
 005148,-0.00001868,-0.00001055,0.00019216,0.00002743,-0.00008014,0.000
 00047,0.00003543,0.00001172,0.00006477,-0.00007131,-0.00000361,0.00009
 614,-0.00001435,0.00002253,0.00004937,0.00042213,0.00015716,-0.0005161
 6,-0.00015290,-0.00015706,-0.00007876,-0.00000792,0.00001084,-0.000019
 91,0.00000576,0.00000180,0.00004332,0.00009189,0.00048415,-0.00009059,
 -0.00011512,0.00004196,0.00003962,0.00003293,-0.00004898,0.00003453,-0
 .00002787,-0.00009841,-0.00001416,-0.15616644,0.03864038,-0.01699393,-
 0.05453323,0.06798035,-0.01053281,0.03464448,-0.01244881,0.00051139,0.
 23417663,-0.03335316,-0.06680334,-0.02241746,-0.00258448,0.00549878,-0
 .00244336,-0.00109061,-0.00043013,-0.00102907,0.00017930,-0.00060267,0
 .00039032,0.00006239,-0.00005772,0.00010876,-0.00060334,-0.00361479,-0
 .00138893,-0.00153017,0.00061992,-0.00012709,0.00009502,-0.00003259,0.
 00002650,-0.00256023,-0.00250671,0.00017885,-0.00002091,0.00011306,0.0
 0028708,0.00009431,0.00004308,0.00002561,0.00047107,-0.00011500,0.0000
 4950,-0.00008512,0.00008647,-0.00006572,-0.00016952,0.00007843,-0.0002
 7152,-0.00011370,-0.00021296,0.00016318,0.00127013,0.00021481,-0.00107
 967,-0.00028242,-0.00050292,-0.00035097,-0.00012954,0.00001781,0.00011
 814,-0.00008338,-0.00005940,0.00010245,-0.00039316,-0.00057869,0.00033
 396,0.00024612,-0.00025954,-0.00014465,-0.00028235,0.00016945,-0.00019
 328,0.00014893,0.00011799,0.00002271,0.02734143,-0.15997973,-0.0120850
 5,0.05976066,-0.00132016,0.01227224,0.00902596,-0.10243494,-0.02880081
 ,-0.05541323,0.33255149,-0.02281285,-0.02248581,-0.03413036,-0.0012214
 3,-0.00316500,0.00841260,-0.00170864,-0.00139181,-0.00171788,0.0001536
 7,-0.00080790,0.00060336,0.00005431,0.00000607,0.00000143,0.00005253,-
 0.00050158,-0.00044431,-0.00020414,0.00013463,-0.00006534,0.00014446,-
 0.00001458,-0.00000034,0.00064019,0.00098975,0.00025733,0.00008952,-0.
 00002374,-0.00012953,0.00001988,-0.00000856,-0.00007066,0.00005974,-0.
 00004158,-0.00031293,-0.00002232,0.00004945,0.00001105,-0.00000138,0.0
 0009339,-0.00010146,-0.00002326,-0.00005037,0.00007100,-0.00011782,0.0
 0004254,0.00022369,0.00004537,0.00006460,0.00000602,-0.00000198,-0.000
 00850,0.00002165,-0.00002075,0.00003299,0.00003218,-0.00016545,0.00012
 324,0.00009776,0.00002526,-0.00005373,-0.00006816,-0.00006444,0.000031
 35,-0.00006708,0.00002040,0.00002429,-0.00001401,-0.01980321,-0.008408
 33,-0.08470972,-0.01263062,0.01497508,0.02836429,0.00589224,-0.0359241
 5,0.01660834,0.05160070,0.05631826,0.06712108\\0.00000476,-0.00000484,
 0.00000066,-0.00000140,-0.00000019,0.00000091,-0.00000609,0.00000027,0
 .00000009,-0.00000854,0.00000098,0.00000092,-0.00000795,-0.00000434,0.
 00000207,0.00000011,0.00000488,-0.00000174,-0.00000200,0.00000649,-0.0
 0000107,0.00000079,0.00000665,-0.00000154,-0.00000125,-0.00000285,0.00
 000077,0.00000159,-0.00000354,0.00000077,-0.00000243,-0.00000664,0.000
 00191,-0.00000655,0.00000115,0.00000117,-0.00000587,0.00000476,0.00000
 007,-0.00000497,-0.00000053,0.00000059,-0.00001037,0.00000131,0.000000
 99,-0.00000493,-0.00000101,0.00000121,-0.00000474,-0.00000292,0.000001
 29,-0.00000362,0.00000247,-0.00000009,-0.00000778,-0.00000081,0.000000
 91,0.00000482,0.00000496,-0.00000147,0.00000781,0.00000400,-0.00000201
 ,0.00000572,0.00000906,-0.00000290,0.00000545,0.00000401,-0.00000176,0
 .00001263,-0.00000120,0.00000031,0.00001154,-0.00000338,-0.00000199,0.
 00001442,-0.00000883,-0.00000073,0.00000885,-0.00000990,0.00000065\\\@


 YE HAVE SOWN MUCH, AND BRING IN LITTLE.
 YE EAT, BUT YE HAVE NOT ENOUGH.
 YE DRINK, BUT YE ARE NOT FILLED WITH DRINK.
 YE CLOTHE YOU, BUT THERE IS NONE WARM.
 AND HE THAT EARNETH WAGES EARNETH WAGES TO PUT
 IT INTO A BAG WITH HOLES.
                                     HAGGAI I,6
 Job cpu time:       0 days  0 hours 19 minutes 48.3 seconds.
 File lengths (MBytes):  RWF=    192 Int=      0 D2E=      0 Chk=      5 Scr=      1
 Normal termination of Gaussian 09 at Thu Mar 16 16:41:32 2023.
