 Entering Gaussian System, Link 0=g09
 Input=au-1to3-ts-2-af-no3-cterm-se-wat-ts-p.com
 Output=au-1to3-ts-2-af-no3-cterm-se-wat-ts-p.log
 Initial command:
 /home/scr/programs/g09/l1.exe "/home/scr/helius/Gau-29511.inp" -scrdir="/home/scr/helius/"
 Entering Link 1 = /home/scr/programs/g09/l1.exe PID=     29513.
  
 Copyright (c) 1988,1990,1992,1993,1995,1998,2003,2009,2013,
            Gaussian, Inc.  All Rights Reserved.
  
 This is part of the Gaussian(R) 09 program.  It is based on
 the Gaussian(R) 03 system (copyright 2003, Gaussian, Inc.),
 the Gaussian(R) 98 system (copyright 1998, Gaussian, Inc.),
 the Gaussian(R) 94 system (copyright 1995, Gaussian, Inc.),
 the Gaussian 92(TM) system (copyright 1992, Gaussian, Inc.),
 the Gaussian 90(TM) system (copyright 1990, Gaussian, Inc.),
 the Gaussian 88(TM) system (copyright 1988, Gaussian, Inc.),
 the Gaussian 86(TM) system (copyright 1986, Carnegie Mellon
 University), and the Gaussian 82(TM) system (copyright 1983,
 Carnegie Mellon University). Gaussian is a federally registered
 trademark of Gaussian, Inc.
  
 This software contains proprietary and confidential information,
 including trade secrets, belonging to Gaussian, Inc.
  
 This software is provided under written license and may be
 used, copied, transmitted, or stored only in accord with that
 written license.
  
 The following legend is applicable only to US Government
 contracts under FAR:
  
                    RESTRICTED RIGHTS LEGEND
  
 Use, reproduction and disclosure by the US Government is
 subject to restrictions as set forth in subparagraphs (a)
 and (c) of the Commercial Computer Software - Restricted
 Rights clause in FAR 52.227-19.
  
 Gaussian, Inc.
 340 Quinnipiac St., Bldg. 40, Wallingford CT 06492
  
  
 ---------------------------------------------------------------
 Warning -- This program may not be used in any manner that
 competes with the business of Gaussian, Inc. or will provide
 assistance to any competitor of Gaussian, Inc.  The licensee
 of this program is prohibited from giving any competitor of
 Gaussian, Inc. access to this program.  By using this program,
 the user acknowledges that Gaussian, Inc. is engaged in the
 business of creating and licensing software in the field of
 computational chemistry and represents and warrants to the
 licensee that it is not a competitor of Gaussian, Inc. and that
 it will not use this program in any manner prohibited above.
 ---------------------------------------------------------------
  

 Cite this work as:
 Gaussian 09, Revision D.01,
 M. J. Frisch, G. W. Trucks, H. B. Schlegel, G. E. Scuseria, 
 M. A. Robb, J. R. Cheeseman, G. Scalmani, V. Barone, B. Mennucci, 
 G. A. Petersson, H. Nakatsuji, M. Caricato, X. Li, H. P. Hratchian, 
 A. F. Izmaylov, J. Bloino, G. Zheng, J. L. Sonnenberg, M. Hada, 
 M. Ehara, K. Toyota, R. Fukuda, J. Hasegawa, M. Ishida, T. Nakajima, 
 Y. Honda, O. Kitao, H. Nakai, T. Vreven, J. A. Montgomery, Jr., 
 J. E. Peralta, F. Ogliaro, M. Bearpark, J. J. Heyd, E. Brothers, 
 K. N. Kudin, V. N. Staroverov, T. Keith, R. Kobayashi, J. Normand, 
 K. Raghavachari, A. Rendell, J. C. Burant, S. S. Iyengar, J. Tomasi, 
 M. Cossi, N. Rega, J. M. Millam, M. Klene, J. E. Knox, J. B. Cross, 
 V. Bakken, C. Adamo, J. Jaramillo, R. Gomperts, R. E. Stratmann, 
 O. Yazyev, A. J. Austin, R. Cammi, C. Pomelli, J. W. Ochterski, 
 R. L. Martin, K. Morokuma, V. G. Zakrzewski, G. A. Voth, 
 P. Salvador, J. J. Dannenberg, S. Dapprich, A. D. Daniels, 
 O. Farkas, J. B. Foresman, J. V. Ortiz, J. Cioslowski, 
 and D. J. Fox, Gaussian, Inc., Wallingford CT, 2013.
 
 ******************************************
 Gaussian 09:  EM64L-G09RevD.01 24-Apr-2013
                14-Mar-2023 
 ******************************************
 %mem=30000MB
 %nprocshared=8
 Will use up to    8 processors via shared memory.
 ----------------------------------------
 # opt freq=noraman b3lyp/gen pseudo=read
 ----------------------------------------
 1/14=-1,18=20,19=15,26=3,38=1/1,3;
 2/9=110,12=2,17=6,18=5,40=1/2;
 3/5=7,11=2,16=1,17=8,25=1,30=1,71=1,74=-5/1,2,3;
 4//1;
 5/5=2,38=5/2;
 6/7=2,8=2,9=2,10=2,28=1/1;
 7//1,2,3,16;
 1/14=-1,18=20,19=15,26=3/3(2);
 2/9=110/2;
 99//99;
 2/9=110/2;
 3/5=7,6=1,11=2,16=1,17=8,25=1,30=1,71=1,74=-5,82=7/1,2,3;
 4/5=5,16=3,69=1/1;
 5/5=2,38=5/2;
 7//1,2,3,16;
 1/14=-1,18=20,19=15,26=3/3(-5);
 2/9=110/2;
 6/7=2,8=2,9=2,10=2,19=2,28=1/1;
 99/9=1/99;
 ----
 test
 ----
 Symbolic Z-matrix:
 Charge =  0 Multiplicity = 1
 Au                    2.88753  -0.12884  -0.18589 
 P                     4.20641   1.58507   0.96895 
 C                     4.06598   3.20216   0.08342 
 H                     4.56168   3.97488   0.69159 
 H                     2.99034   3.43443   0.08199 
 C                     6.01492   1.25535   1.18362 
 H                     6.47291   2.16854   1.58332 
 H                     6.4171    1.09437   0.18042 
 C                     3.51323   1.90436   2.66715 
 H                     3.49149   0.94448   3.19579 
 H                     2.46213   2.18274   2.51163 
 C                     4.60314   3.19307  -1.34841 
 H                     5.6742    2.97462  -1.3767 
 H                     4.09331   2.44346  -1.95682 
 H                     4.44283   4.1698   -1.80805 
 C                     4.23725   2.96715   3.5065 
 H                     3.73118   3.07978   4.47553 
 H                     5.27631   2.68312   3.7126 
 H                     4.2396    3.9444    3.02294 
 C                     6.32571   0.05381   2.09172 
 H                     5.86703  -0.86693   1.70493 
 H                     7.40987  -0.105     2.13246 
 H                     5.98282   0.21317   3.11974 
 N                    -8.67295   2.45151  -0.55464 
 C                    -7.25876   2.31038  -0.21014 
 C                    -6.75978   0.87086  -0.37315 
 O                    -7.43186  -0.04869   0.13248 
 C                    -7.07897   2.711     1.27191 
 O                    -5.79788   2.43127   1.78348 
 N                    -5.62091   0.5723   -1.06836 
 C                    -4.71314   1.44589  -1.81858 
 C                    -3.613     2.08283  -0.95291 
 O                    -3.88882   3.02447  -0.21117 
 N                    -2.32519   1.6145   -1.01124 
 C                    -1.70037   0.56215  -1.82581 
 C                    -1.9346   -0.8726   -1.30708 
 O                    -2.27767  -1.76626  -2.07728 
 C                    -0.17548   0.89155  -2.07733 
 S                     0.88289   1.33125  -0.53427 
 N                    -1.70986  -1.05511   0.02221 
 C                    -1.19888  -2.34273   0.50998 
 C                     0.33158  -2.2765    0.7046 
 C                    -1.85918  -2.68948   1.86109 
 O                    -1.28374  -2.41301   2.91446 
 N                    -3.06846  -3.31106   1.84481 
 C                    -4.01701  -3.39001   0.73685 
 C                    -5.2507   -2.55384   1.06539 
 O                    -5.58609  -2.27024   2.19366 
 O                    -5.9257   -2.21208  -0.0474 
 H                    -7.34649   3.7814    1.36726 
 H                    -7.78572   2.13334   1.8785 
 H                    -5.12847   2.86702   1.21575 
 H                    -6.67439   2.99736  -0.82664 
 H                    -9.17525   1.69168  -0.10652 
 H                    -8.80899   2.33455  -1.55751 
 H                    -5.27685   2.27907  -2.25675 
 H                    -4.30619   0.85391  -2.63804 
 H                    -5.378    -0.4127   -1.05517 
 H                    -0.1595    1.81291  -2.67318 
 H                     0.27202   0.07166  -2.65783 
 H                    -2.1448    0.58008  -2.83348 
 H                    -1.71652   2.10337  -0.3551 
 H                     0.69693  -3.22679   1.11419 
 H                     0.56889  -1.49904   1.43752 
 H                    -1.44832  -3.07873  -0.24326 
 H                    -1.32677  -0.24831   0.52131 
 H                    -4.3377   -4.42817   0.57203 
 H                    -3.57543  -3.04428  -0.19484 
 H                    -3.50725  -3.3469    2.75548 
 H                    -6.66135  -1.56207   0.17829 
 Se                    1.31255  -1.90184  -0.97951 
 N                     5.45324  -1.14531  -1.28652 
 O                     4.601    -1.46629  -0.29289 
 O                     6.35256  -1.94458  -1.52148 
 O                     5.26076  -0.07091  -1.88353 
 

 GradGradGradGradGradGradGradGradGradGradGradGradGradGradGradGradGradGrad
 Berny optimization.
 Initialization pass.
                           ----------------------------
                           !    Initial Parameters    !
                           ! (Angstroms and Degrees)  !
 --------------------------                            --------------------------
 ! Name  Definition              Value          Derivative Info.                !
 --------------------------------------------------------------------------------
 ! R1    R(1,2)                  2.4517         estimate D2E/DX2                !
 ! R2    R(1,39)                 2.5044         estimate D2E/DX2                !
 ! R3    R(1,71)                 2.5008         estimate D2E/DX2                !
 ! R4    R(1,73)                 2.1763         estimate D2E/DX2                !
 ! R5    R(2,3)                  1.849          estimate D2E/DX2                !
 ! R6    R(2,6)                  1.8508         estimate D2E/DX2                !
 ! R7    R(2,9)                  1.8618         estimate D2E/DX2                !
 ! R8    R(3,4)                  1.1012         estimate D2E/DX2                !
 ! R9    R(3,5)                  1.1004         estimate D2E/DX2                !
 ! R10   R(3,12)                 1.5293         estimate D2E/DX2                !
 ! R11   R(6,7)                  1.097          estimate D2E/DX2                !
 ! R12   R(6,8)                  1.0927         estimate D2E/DX2                !
 ! R13   R(6,20)                 1.5378         estimate D2E/DX2                !
 ! R14   R(9,10)                 1.096          estimate D2E/DX2                !
 ! R15   R(9,11)                 1.0984         estimate D2E/DX2                !
 ! R16   R(9,16)                 1.5357         estimate D2E/DX2                !
 ! R17   R(12,13)                1.0935         estimate D2E/DX2                !
 ! R18   R(12,14)                1.0918         estimate D2E/DX2                !
 ! R19   R(12,15)                1.0913         estimate D2E/DX2                !
 ! R20   R(16,17)                1.099          estimate D2E/DX2                !
 ! R21   R(16,18)                1.0967         estimate D2E/DX2                !
 ! R22   R(16,19)                1.0903         estimate D2E/DX2                !
 ! R23   R(20,21)                1.099          estimate D2E/DX2                !
 ! R24   R(20,22)                1.0965         estimate D2E/DX2                !
 ! R25   R(20,23)                1.0954         estimate D2E/DX2                !
 ! R26   R(24,25)                1.4624         estimate D2E/DX2                !
 ! R27   R(24,54)                1.0151         estimate D2E/DX2                !
 ! R28   R(24,55)                1.0188         estimate D2E/DX2                !
 ! R29   R(25,26)                1.5322         estimate D2E/DX2                !
 ! R30   R(25,28)                1.5457         estimate D2E/DX2                !
 ! R31   R(25,53)                1.0925         estimate D2E/DX2                !
 ! R32   R(26,27)                1.2462         estimate D2E/DX2                !
 ! R33   R(26,30)                1.3673         estimate D2E/DX2                !
 ! R34   R(28,29)                1.4075         estimate D2E/DX2                !
 ! R35   R(28,50)                1.1074         estimate D2E/DX2                !
 ! R36   R(28,51)                1.096          estimate D2E/DX2                !
 ! R37   R(29,52)                0.9799         estimate D2E/DX2                !
 ! R38   R(30,31)                1.4663         estimate D2E/DX2                !
 ! R39   R(30,58)                1.0146         estimate D2E/DX2                !
 ! R40   R(31,32)                1.538          estimate D2E/DX2                !
 ! R41   R(31,56)                1.0972         estimate D2E/DX2                !
 ! R42   R(31,57)                1.0897         estimate D2E/DX2                !
 ! R43   R(32,33)                1.23           estimate D2E/DX2                !
 ! R44   R(32,34)                1.3716         estimate D2E/DX2                !
 ! R45   R(34,35)                1.4702         estimate D2E/DX2                !
 ! R46   R(34,62)                1.0198         estimate D2E/DX2                !
 ! R47   R(35,36)                1.5435         estimate D2E/DX2                !
 ! R48   R(35,38)                1.5802         estimate D2E/DX2                !
 ! R49   R(35,61)                1.1015         estimate D2E/DX2                !
 ! R50   R(36,37)                1.2286         estimate D2E/DX2                !
 ! R51   R(36,40)                1.3604         estimate D2E/DX2                !
 ! R52   R(38,39)                1.9221         estimate D2E/DX2                !
 ! R53   R(38,59)                1.0974         estimate D2E/DX2                !
 ! R54   R(38,60)                1.0997         estimate D2E/DX2                !
 ! R55   R(40,41)                1.4687         estimate D2E/DX2                !
 ! R56   R(40,66)                1.0231         estimate D2E/DX2                !
 ! R57   R(41,42)                1.5442         estimate D2E/DX2                !
 ! R58   R(41,43)                1.5433         estimate D2E/DX2                !
 ! R59   R(41,65)                1.0823         estimate D2E/DX2                !
 ! R60   R(42,63)                1.0974         estimate D2E/DX2                !
 ! R61   R(42,64)                1.0945         estimate D2E/DX2                !
 ! R62   R(42,71)                1.9847         estimate D2E/DX2                !
 ! R63   R(43,44)                1.2317         estimate D2E/DX2                !
 ! R64   R(43,45)                1.3598         estimate D2E/DX2                !
 ! R65   R(45,46)                1.4607         estimate D2E/DX2                !
 ! R66   R(45,69)                1.0115         estimate D2E/DX2                !
 ! R67   R(46,47)                1.5261         estimate D2E/DX2                !
 ! R68   R(46,67)                1.099          estimate D2E/DX2                !
 ! R69   R(46,68)                1.0875         estimate D2E/DX2                !
 ! R70   R(47,48)                1.2107         estimate D2E/DX2                !
 ! R71   R(47,49)                1.3456         estimate D2E/DX2                !
 ! R72   R(49,70)                1.0073         estimate D2E/DX2                !
 ! R73   R(72,73)                1.3478         estimate D2E/DX2                !
 ! R74   R(72,74)                1.2259         estimate D2E/DX2                !
 ! R75   R(72,75)                1.2441         estimate D2E/DX2                !
 ! A1    A(2,1,39)              95.0808         estimate D2E/DX2                !
 ! A2    A(2,1,73)              91.6753         estimate D2E/DX2                !
 ! A3    A(39,1,71)             82.2455         estimate D2E/DX2                !
 ! A4    A(71,1,73)             92.5534         estimate D2E/DX2                !
 ! A5    A(1,2,3)              110.1784         estimate D2E/DX2                !
 ! A6    A(1,2,6)              117.1133         estimate D2E/DX2                !
 ! A7    A(1,2,9)              110.4414         estimate D2E/DX2                !
 ! A8    A(3,2,6)              106.5928         estimate D2E/DX2                !
 ! A9    A(3,2,9)              104.9857         estimate D2E/DX2                !
 ! A10   A(6,2,9)              106.772          estimate D2E/DX2                !
 ! A11   A(2,3,4)              108.3607         estimate D2E/DX2                !
 ! A12   A(2,3,5)              105.0377         estimate D2E/DX2                !
 ! A13   A(2,3,12)             114.6154         estimate D2E/DX2                !
 ! A14   A(4,3,5)              107.0139         estimate D2E/DX2                !
 ! A15   A(4,3,12)             111.2924         estimate D2E/DX2                !
 ! A16   A(5,3,12)             110.0826         estimate D2E/DX2                !
 ! A17   A(2,6,7)              107.5724         estimate D2E/DX2                !
 ! A18   A(2,6,8)              106.2243         estimate D2E/DX2                !
 ! A19   A(2,6,20)             113.9014         estimate D2E/DX2                !
 ! A20   A(7,6,8)              107.666          estimate D2E/DX2                !
 ! A21   A(7,6,20)             110.5408         estimate D2E/DX2                !
 ! A22   A(8,6,20)             110.6486         estimate D2E/DX2                !
 ! A23   A(2,9,10)             107.2854         estimate D2E/DX2                !
 ! A24   A(2,9,11)             105.7            estimate D2E/DX2                !
 ! A25   A(2,9,16)             116.2114         estimate D2E/DX2                !
 ! A26   A(10,9,11)            105.7398         estimate D2E/DX2                !
 ! A27   A(10,9,16)            110.5995         estimate D2E/DX2                !
 ! A28   A(11,9,16)            110.6806         estimate D2E/DX2                !
 ! A29   A(3,12,13)            111.6817         estimate D2E/DX2                !
 ! A30   A(3,12,14)            111.2107         estimate D2E/DX2                !
 ! A31   A(3,12,15)            109.7193         estimate D2E/DX2                !
 ! A32   A(13,12,14)           107.8073         estimate D2E/DX2                !
 ! A33   A(13,12,15)           108.1675         estimate D2E/DX2                !
 ! A34   A(14,12,15)           108.1317         estimate D2E/DX2                !
 ! A35   A(9,16,17)            109.6178         estimate D2E/DX2                !
 ! A36   A(9,16,18)            111.7256         estimate D2E/DX2                !
 ! A37   A(9,16,19)            112.2662         estimate D2E/DX2                !
 ! A38   A(17,16,18)           107.2842         estimate D2E/DX2                !
 ! A39   A(17,16,19)           107.4685         estimate D2E/DX2                !
 ! A40   A(18,16,19)           108.2662         estimate D2E/DX2                !
 ! A41   A(6,20,21)            111.2489         estimate D2E/DX2                !
 ! A42   A(6,20,22)            109.5682         estimate D2E/DX2                !
 ! A43   A(6,20,23)            112.1643         estimate D2E/DX2                !
 ! A44   A(21,20,22)           107.7232         estimate D2E/DX2                !
 ! A45   A(21,20,23)           108.7569         estimate D2E/DX2                !
 ! A46   A(22,20,23)           107.2008         estimate D2E/DX2                !
 ! A47   A(25,24,54)           107.5948         estimate D2E/DX2                !
 ! A48   A(25,24,55)           110.4839         estimate D2E/DX2                !
 ! A49   A(54,24,55)           106.4121         estimate D2E/DX2                !
 ! A50   A(24,25,26)           112.3666         estimate D2E/DX2                !
 ! A51   A(24,25,28)           108.2605         estimate D2E/DX2                !
 ! A52   A(24,25,53)           108.8839         estimate D2E/DX2                !
 ! A53   A(26,25,28)           107.9158         estimate D2E/DX2                !
 ! A54   A(26,25,53)           110.8883         estimate D2E/DX2                !
 ! A55   A(28,25,53)           108.4135         estimate D2E/DX2                !
 ! A56   A(25,26,27)           118.3237         estimate D2E/DX2                !
 ! A57   A(25,26,30)           122.0387         estimate D2E/DX2                !
 ! A58   A(27,26,30)           119.6299         estimate D2E/DX2                !
 ! A59   A(25,28,29)           113.7556         estimate D2E/DX2                !
 ! A60   A(25,28,50)           107.7557         estimate D2E/DX2                !
 ! A61   A(25,28,51)           108.6059         estimate D2E/DX2                !
 ! A62   A(29,28,50)           112.375          estimate D2E/DX2                !
 ! A63   A(29,28,51)           106.3218         estimate D2E/DX2                !
 ! A64   A(50,28,51)           107.8192         estimate D2E/DX2                !
 ! A65   A(28,29,52)           108.8329         estimate D2E/DX2                !
 ! A66   A(26,30,31)           130.2192         estimate D2E/DX2                !
 ! A67   A(26,30,58)           113.8788         estimate D2E/DX2                !
 ! A68   A(31,30,58)           115.902          estimate D2E/DX2                !
 ! A69   A(30,31,32)           113.6782         estimate D2E/DX2                !
 ! A70   A(30,31,56)           109.7951         estimate D2E/DX2                !
 ! A71   A(30,31,57)           106.9944         estimate D2E/DX2                !
 ! A72   A(32,31,56)           106.1284         estimate D2E/DX2                !
 ! A73   A(32,31,57)           112.4022         estimate D2E/DX2                !
 ! A74   A(56,31,57)           107.7011         estimate D2E/DX2                !
 ! A75   A(31,32,33)           119.7399         estimate D2E/DX2                !
 ! A76   A(31,32,34)           120.4167         estimate D2E/DX2                !
 ! A77   A(33,32,34)           119.8412         estimate D2E/DX2                !
 ! A78   A(32,34,35)           131.8382         estimate D2E/DX2                !
 ! A79   A(32,34,62)           111.6762         estimate D2E/DX2                !
 ! A80   A(35,34,62)           116.4849         estimate D2E/DX2                !
 ! A81   A(34,35,36)           114.4983         estimate D2E/DX2                !
 ! A82   A(34,35,38)           110.4326         estimate D2E/DX2                !
 ! A83   A(34,35,61)           108.8902         estimate D2E/DX2                !
 ! A84   A(36,35,38)           113.1843         estimate D2E/DX2                !
 ! A85   A(36,35,61)           105.1501         estimate D2E/DX2                !
 ! A86   A(38,35,61)           103.9074         estimate D2E/DX2                !
 ! A87   A(35,36,37)           120.5174         estimate D2E/DX2                !
 ! A88   A(35,36,40)           115.3414         estimate D2E/DX2                !
 ! A89   A(37,36,40)           124.1295         estimate D2E/DX2                !
 ! A90   A(35,38,39)           116.8242         estimate D2E/DX2                !
 ! A91   A(35,38,59)           105.9917         estimate D2E/DX2                !
 ! A92   A(35,38,60)           108.7406         estimate D2E/DX2                !
 ! A93   A(39,38,59)           103.64           estimate D2E/DX2                !
 ! A94   A(39,38,60)           111.7303         estimate D2E/DX2                !
 ! A95   A(59,38,60)           109.4758         estimate D2E/DX2                !
 ! A96   A(1,39,38)            114.7755         estimate D2E/DX2                !
 ! A97   A(36,40,41)           119.9739         estimate D2E/DX2                !
 ! A98   A(36,40,66)           115.6392         estimate D2E/DX2                !
 ! A99   A(41,40,66)           113.52           estimate D2E/DX2                !
 ! A100  A(40,41,42)           110.4307         estimate D2E/DX2                !
 ! A101  A(40,41,43)           109.809          estimate D2E/DX2                !
 ! A102  A(40,41,65)           106.5521         estimate D2E/DX2                !
 ! A103  A(42,41,43)           108.8652         estimate D2E/DX2                !
 ! A104  A(42,41,65)           110.2011         estimate D2E/DX2                !
 ! A105  A(43,41,65)           110.9721         estimate D2E/DX2                !
 ! A106  A(41,42,63)           109.8681         estimate D2E/DX2                !
 ! A107  A(41,42,64)           109.2541         estimate D2E/DX2                !
 ! A108  A(41,42,71)           113.0184         estimate D2E/DX2                !
 ! A109  A(63,42,64)           107.0367         estimate D2E/DX2                !
 ! A110  A(63,42,71)           108.3987         estimate D2E/DX2                !
 ! A111  A(64,42,71)           109.0849         estimate D2E/DX2                !
 ! A112  A(41,43,44)           119.8933         estimate D2E/DX2                !
 ! A113  A(41,43,45)           118.2115         estimate D2E/DX2                !
 ! A114  A(44,43,45)           121.8918         estimate D2E/DX2                !
 ! A115  A(43,45,46)           127.6842         estimate D2E/DX2                !
 ! A116  A(43,45,69)           113.0302         estimate D2E/DX2                !
 ! A117  A(46,45,69)           113.5333         estimate D2E/DX2                !
 ! A118  A(45,46,47)           109.3932         estimate D2E/DX2                !
 ! A119  A(45,46,67)           110.751          estimate D2E/DX2                !
 ! A120  A(45,46,68)           111.6537         estimate D2E/DX2                !
 ! A121  A(47,46,67)           108.2987         estimate D2E/DX2                !
 ! A122  A(47,46,68)           109.7857         estimate D2E/DX2                !
 ! A123  A(67,46,68)           106.8773         estimate D2E/DX2                !
 ! A124  A(46,47,48)           123.5643         estimate D2E/DX2                !
 ! A125  A(46,47,49)           111.5077         estimate D2E/DX2                !
 ! A126  A(48,47,49)           124.903          estimate D2E/DX2                !
 ! A127  A(47,49,70)           110.1793         estimate D2E/DX2                !
 ! A128  A(1,71,42)            100.1276         estimate D2E/DX2                !
 ! A129  A(73,72,74)           116.7364         estimate D2E/DX2                !
 ! A130  A(73,72,75)           117.4902         estimate D2E/DX2                !
 ! A131  A(74,72,75)           125.7734         estimate D2E/DX2                !
 ! A132  A(1,73,72)            112.8133         estimate D2E/DX2                !
 ! A133  L(2,1,71,73,-1)       184.2288         estimate D2E/DX2                !
 ! A134  L(39,1,73,71,-1)      174.799          estimate D2E/DX2                !
 ! A135  L(2,1,71,73,-2)       170.6189         estimate D2E/DX2                !
 ! A136  L(39,1,73,71,-2)      170.2868         estimate D2E/DX2                !
 ! D1    D(39,1,2,3)           -44.4116         estimate D2E/DX2                !
 ! D2    D(39,1,2,6)          -166.415          estimate D2E/DX2                !
 ! D3    D(39,1,2,9)            71.1178         estimate D2E/DX2                !
 ! D4    D(73,1,2,3)           126.9238         estimate D2E/DX2                !
 ! D5    D(73,1,2,6)             4.9204         estimate D2E/DX2                !
 ! D6    D(73,1,2,9)          -117.5468         estimate D2E/DX2                !
 ! D7    D(3,2,71,42)         -122.9419         estimate D2E/DX2                !
 ! D8    D(6,2,71,42)          110.7784         estimate D2E/DX2                !
 ! D9    D(9,2,71,42)           -9.1173         estimate D2E/DX2                !
 ! D10   D(2,1,39,38)          151.8178         estimate D2E/DX2                !
 ! D11   D(71,1,39,38)         -38.1805         estimate D2E/DX2                !
 ! D12   D(38,39,73,72)         70.2477         estimate D2E/DX2                !
 ! D13   D(39,1,71,42)         -81.5211         estimate D2E/DX2                !
 ! D14   D(73,1,71,42)         108.1921         estimate D2E/DX2                !
 ! D15   D(2,1,73,72)          -79.3226         estimate D2E/DX2                !
 ! D16   D(71,1,73,72)         110.0585         estimate D2E/DX2                !
 ! D17   D(1,2,3,4)            172.9924         estimate D2E/DX2                !
 ! D18   D(1,2,3,5)             58.8883         estimate D2E/DX2                !
 ! D19   D(1,2,3,12)           -62.0542         estimate D2E/DX2                !
 ! D20   D(6,2,3,4)            -58.9716         estimate D2E/DX2                !
 ! D21   D(6,2,3,5)           -173.0757         estimate D2E/DX2                !
 ! D22   D(6,2,3,12)            65.9819         estimate D2E/DX2                !
 ! D23   D(9,2,3,4)             54.0742         estimate D2E/DX2                !
 ! D24   D(9,2,3,5)            -60.0299         estimate D2E/DX2                !
 ! D25   D(9,2,3,12)           179.0277         estimate D2E/DX2                !
 ! D26   D(1,2,6,7)            172.1231         estimate D2E/DX2                !
 ! D27   D(1,2,6,8)             57.0562         estimate D2E/DX2                !
 ! D28   D(1,2,6,20)           -64.9943         estimate D2E/DX2                !
 ! D29   D(3,2,6,7)             48.2788         estimate D2E/DX2                !
 ! D30   D(3,2,6,8)            -66.7881         estimate D2E/DX2                !
 ! D31   D(3,2,6,20)           171.1614         estimate D2E/DX2                !
 ! D32   D(9,2,6,7)            -63.536          estimate D2E/DX2                !
 ! D33   D(9,2,6,8)           -178.6029         estimate D2E/DX2                !
 ! D34   D(9,2,6,20)            59.3466         estimate D2E/DX2                !
 ! D35   D(1,2,9,10)            56.0641         estimate D2E/DX2                !
 ! D36   D(1,2,9,11)           -56.4295         estimate D2E/DX2                !
 ! D37   D(1,2,9,16)          -179.6095         estimate D2E/DX2                !
 ! D38   D(3,2,9,10)           174.8054         estimate D2E/DX2                !
 ! D39   D(3,2,9,11)            62.3118         estimate D2E/DX2                !
 ! D40   D(3,2,9,16)           -60.8682         estimate D2E/DX2                !
 ! D41   D(6,2,9,10)           -72.2755         estimate D2E/DX2                !
 ! D42   D(6,2,9,11)           175.2309         estimate D2E/DX2                !
 ! D43   D(6,2,9,16)            52.0509         estimate D2E/DX2                !
 ! D44   D(2,3,12,13)          -62.4603         estimate D2E/DX2                !
 ! D45   D(2,3,12,14)           58.0246         estimate D2E/DX2                !
 ! D46   D(2,3,12,15)          177.6097         estimate D2E/DX2                !
 ! D47   D(4,3,12,13)           60.9361         estimate D2E/DX2                !
 ! D48   D(4,3,12,14)         -178.579          estimate D2E/DX2                !
 ! D49   D(4,3,12,15)          -58.9939         estimate D2E/DX2                !
 ! D50   D(5,3,12,13)          179.4164         estimate D2E/DX2                !
 ! D51   D(5,3,12,14)          -60.0986         estimate D2E/DX2                !
 ! D52   D(5,3,12,15)           59.4864         estimate D2E/DX2                !
 ! D53   D(2,6,20,21)           58.4191         estimate D2E/DX2                !
 ! D54   D(2,6,20,22)          177.423          estimate D2E/DX2                !
 ! D55   D(2,6,20,23)          -63.6501         estimate D2E/DX2                !
 ! D56   D(7,6,20,21)          179.6646         estimate D2E/DX2                !
 ! D57   D(7,6,20,22)          -61.3315         estimate D2E/DX2                !
 ! D58   D(7,6,20,23)           57.5953         estimate D2E/DX2                !
 ! D59   D(8,6,20,21)          -61.1577         estimate D2E/DX2                !
 ! D60   D(8,6,20,22)           57.8462         estimate D2E/DX2                !
 ! D61   D(8,6,20,23)          176.773          estimate D2E/DX2                !
 ! D62   D(2,9,16,17)          179.0535         estimate D2E/DX2                !
 ! D63   D(2,9,16,18)          -62.1588         estimate D2E/DX2                !
 ! D64   D(2,9,16,19)           59.6936         estimate D2E/DX2                !
 ! D65   D(10,9,16,17)         -58.3411         estimate D2E/DX2                !
 ! D66   D(10,9,16,18)          60.4466         estimate D2E/DX2                !
 ! D67   D(10,9,16,19)        -177.7011         estimate D2E/DX2                !
 ! D68   D(11,9,16,17)          58.5078         estimate D2E/DX2                !
 ! D69   D(11,9,16,18)         177.2955         estimate D2E/DX2                !
 ! D70   D(11,9,16,19)         -60.8521         estimate D2E/DX2                !
 ! D71   D(54,24,25,26)         46.1988         estimate D2E/DX2                !
 ! D72   D(54,24,25,28)        -72.8829         estimate D2E/DX2                !
 ! D73   D(54,24,25,53)        169.4451         estimate D2E/DX2                !
 ! D74   D(55,24,25,26)        -69.5791         estimate D2E/DX2                !
 ! D75   D(55,24,25,28)        171.3392         estimate D2E/DX2                !
 ! D76   D(55,24,25,53)         53.6673         estimate D2E/DX2                !
 ! D77   D(24,25,26,27)        -48.8857         estimate D2E/DX2                !
 ! D78   D(24,25,26,30)        130.0984         estimate D2E/DX2                !
 ! D79   D(28,25,26,27)         70.3976         estimate D2E/DX2                !
 ! D80   D(28,25,26,30)       -110.6183         estimate D2E/DX2                !
 ! D81   D(53,25,26,27)       -171.0018         estimate D2E/DX2                !
 ! D82   D(53,25,26,30)          7.9824         estimate D2E/DX2                !
 ! D83   D(24,25,28,29)        171.1177         estimate D2E/DX2                !
 ! D84   D(24,25,28,50)        -63.5973         estimate D2E/DX2                !
 ! D85   D(24,25,28,51)         52.9438         estimate D2E/DX2                !
 ! D86   D(26,25,28,29)         49.2605         estimate D2E/DX2                !
 ! D87   D(26,25,28,50)        174.5455         estimate D2E/DX2                !
 ! D88   D(26,25,28,51)        -68.9134         estimate D2E/DX2                !
 ! D89   D(53,25,28,29)        -70.9095         estimate D2E/DX2                !
 ! D90   D(53,25,28,50)         54.3755         estimate D2E/DX2                !
 ! D91   D(53,25,28,51)        170.9166         estimate D2E/DX2                !
 ! D92   D(25,26,30,31)         -3.2581         estimate D2E/DX2                !
 ! D93   D(25,26,30,58)        176.7953         estimate D2E/DX2                !
 ! D94   D(27,26,30,31)        175.7132         estimate D2E/DX2                !
 ! D95   D(27,26,30,58)         -4.2334         estimate D2E/DX2                !
 ! D96   D(25,28,29,52)         55.4877         estimate D2E/DX2                !
 ! D97   D(50,28,29,52)        -67.2981         estimate D2E/DX2                !
 ! D98   D(51,28,29,52)        174.9675         estimate D2E/DX2                !
 ! D99   D(26,30,31,32)         86.7103         estimate D2E/DX2                !
 ! D100  D(26,30,31,56)        -31.9887         estimate D2E/DX2                !
 ! D101  D(26,30,31,57)       -148.598          estimate D2E/DX2                !
 ! D102  D(58,30,31,32)        -93.3439         estimate D2E/DX2                !
 ! D103  D(58,30,31,56)        147.957          estimate D2E/DX2                !
 ! D104  D(58,30,31,57)         31.3477         estimate D2E/DX2                !
 ! D105  D(30,31,32,33)        -76.1408         estimate D2E/DX2                !
 ! D106  D(30,31,32,34)        104.3908         estimate D2E/DX2                !
 ! D107  D(56,31,32,33)         44.6394         estimate D2E/DX2                !
 ! D108  D(56,31,32,34)       -134.829          estimate D2E/DX2                !
 ! D109  D(57,31,32,33)        162.1263         estimate D2E/DX2                !
 ! D110  D(57,31,32,34)        -17.342          estimate D2E/DX2                !
 ! D111  D(31,32,34,35)          2.2216         estimate D2E/DX2                !
 ! D112  D(31,32,34,62)       -177.4816         estimate D2E/DX2                !
 ! D113  D(33,32,34,35)       -177.2462         estimate D2E/DX2                !
 ! D114  D(33,32,34,62)          3.0505         estimate D2E/DX2                !
 ! D115  D(32,34,35,36)        -80.1504         estimate D2E/DX2                !
 ! D116  D(32,34,35,38)        150.6924         estimate D2E/DX2                !
 ! D117  D(32,34,35,61)         37.2035         estimate D2E/DX2                !
 ! D118  D(62,34,35,36)         99.5415         estimate D2E/DX2                !
 ! D119  D(62,34,35,38)        -29.6157         estimate D2E/DX2                !
 ! D120  D(62,34,35,61)       -143.1046         estimate D2E/DX2                !
 ! D121  D(34,35,36,37)        133.4124         estimate D2E/DX2                !
 ! D122  D(34,35,36,40)        -47.7823         estimate D2E/DX2                !
 ! D123  D(38,35,36,37)        -98.8165         estimate D2E/DX2                !
 ! D124  D(38,35,36,40)         79.9887         estimate D2E/DX2                !
 ! D125  D(61,35,36,37)         13.9417         estimate D2E/DX2                !
 ! D126  D(61,35,36,40)       -167.2531         estimate D2E/DX2                !
 ! D127  D(34,35,38,39)         50.4868         estimate D2E/DX2                !
 ! D128  D(34,35,38,59)        -64.336          estimate D2E/DX2                !
 ! D129  D(34,35,38,60)        178.0522         estimate D2E/DX2                !
 ! D130  D(36,35,38,39)        -79.3747         estimate D2E/DX2                !
 ! D131  D(36,35,38,59)        165.8026         estimate D2E/DX2                !
 ! D132  D(36,35,38,60)         48.1907         estimate D2E/DX2                !
 ! D133  D(61,35,38,39)        167.1133         estimate D2E/DX2                !
 ! D134  D(61,35,38,59)         52.2906         estimate D2E/DX2                !
 ! D135  D(61,35,38,60)        -65.3213         estimate D2E/DX2                !
 ! D136  D(35,36,40,41)       -147.4509         estimate D2E/DX2                !
 ! D137  D(35,36,40,66)         -5.4691         estimate D2E/DX2                !
 ! D138  D(37,36,40,41)         31.3057         estimate D2E/DX2                !
 ! D139  D(37,36,40,66)        173.2875         estimate D2E/DX2                !
 ! D140  D(35,38,39,1)         122.8625         estimate D2E/DX2                !
 ! D141  D(59,38,39,1)        -121.0091         estimate D2E/DX2                !
 ! D142  D(60,38,39,1)          -3.231          estimate D2E/DX2                !
 ! D143  D(36,40,41,42)         97.5542         estimate D2E/DX2                !
 ! D144  D(36,40,41,43)       -142.3845         estimate D2E/DX2                !
 ! D145  D(36,40,41,65)        -22.1246         estimate D2E/DX2                !
 ! D146  D(66,40,41,42)        -45.1753         estimate D2E/DX2                !
 ! D147  D(66,40,41,43)         74.886          estimate D2E/DX2                !
 ! D148  D(66,40,41,65)       -164.8541         estimate D2E/DX2                !
 ! D149  D(40,41,42,63)        177.3146         estimate D2E/DX2                !
 ! D150  D(40,41,42,64)         60.1719         estimate D2E/DX2                !
 ! D151  D(40,41,42,71)        -61.4762         estimate D2E/DX2                !
 ! D152  D(43,41,42,63)         56.6874         estimate D2E/DX2                !
 ! D153  D(43,41,42,64)        -60.4552         estimate D2E/DX2                !
 ! D154  D(43,41,42,71)        177.8966         estimate D2E/DX2                !
 ! D155  D(65,41,42,63)        -65.2337         estimate D2E/DX2                !
 ! D156  D(65,41,42,64)        177.6237         estimate D2E/DX2                !
 ! D157  D(65,41,42,71)         55.9755         estimate D2E/DX2                !
 ! D158  D(40,41,43,44)        -95.6906         estimate D2E/DX2                !
 ! D159  D(40,41,43,45)         84.961          estimate D2E/DX2                !
 ! D160  D(42,41,43,44)         25.3183         estimate D2E/DX2                !
 ! D161  D(42,41,43,45)       -154.0301         estimate D2E/DX2                !
 ! D162  D(65,41,43,44)        146.7703         estimate D2E/DX2                !
 ! D163  D(65,41,43,45)        -32.5781         estimate D2E/DX2                !
 ! D164  D(41,42,71,1)         133.6888         estimate D2E/DX2                !
 ! D165  D(63,42,71,1)        -104.2741         estimate D2E/DX2                !
 ! D166  D(64,42,71,1)          11.9453         estimate D2E/DX2                !
 ! D167  D(41,43,45,46)        -18.0486         estimate D2E/DX2                !
 ! D168  D(41,43,45,69)       -169.2824         estimate D2E/DX2                !
 ! D169  D(44,43,45,46)        162.6168         estimate D2E/DX2                !
 ! D170  D(44,43,45,69)         11.383          estimate D2E/DX2                !
 ! D171  D(43,45,46,47)       -110.6199         estimate D2E/DX2                !
 ! D172  D(43,45,46,67)        130.0839         estimate D2E/DX2                !
 ! D173  D(43,45,46,68)         11.1069         estimate D2E/DX2                !
 ! D174  D(69,45,46,47)         40.4948         estimate D2E/DX2                !
 ! D175  D(69,45,46,67)        -78.8014         estimate D2E/DX2                !
 ! D176  D(69,45,46,68)        162.2216         estimate D2E/DX2                !
 ! D177  D(45,46,47,48)        -23.0551         estimate D2E/DX2                !
 ! D178  D(45,46,47,49)        158.6871         estimate D2E/DX2                !
 ! D179  D(67,46,47,48)         97.7445         estimate D2E/DX2                !
 ! D180  D(67,46,47,49)        -80.5133         estimate D2E/DX2                !
 ! D181  D(68,46,47,48)       -145.9003         estimate D2E/DX2                !
 ! D182  D(68,46,47,49)         35.8419         estimate D2E/DX2                !
 ! D183  D(46,47,49,70)       -172.4552         estimate D2E/DX2                !
 ! D184  D(48,47,49,70)          9.315          estimate D2E/DX2                !
 ! D185  D(74,72,73,1)        -171.0814         estimate D2E/DX2                !
 ! D186  D(75,72,73,1)           8.8681         estimate D2E/DX2                !
 ! D187  D(73,72,74,75)        179.9448         estimate D2E/DX2                !
 --------------------------------------------------------------------------------
 Trust Radius=3.00D-01 FncErr=1.00D-07 GrdErr=1.00D-06
 Number of steps in this run=    408 maximum allowed number of steps=    450.
 GradGradGradGradGradGradGradGradGradGradGradGradGradGradGradGradGradGrad

 Stoichiometry    C19H36AuN6O10PSSe
 Framework group  C1[X(C19H36AuN6O10PSSe)]
 Deg. of freedom   219
 Full point group                 C1      NOp   1
 Largest Abelian subgroup         C1      NOp   1
 Largest concise Abelian subgroup C1      NOp   1
                         Standard orientation:                         
 ---------------------------------------------------------------------
 Center     Atomic      Atomic             Coordinates (Angstroms)
 Number     Number       Type             X           Y           Z
 ---------------------------------------------------------------------
      1         79           0        2.883847   -0.136815   -0.181484
      2         15           0        4.203169    1.570240    0.982972
      3          6           0        4.068282    3.190799    0.102949
      4          1           0        4.563955    3.960309    0.715193
      5          1           0        2.993114    3.425244    0.099585
      6          6           0        6.010446    1.236092    1.201119
      7          1           0        6.469239    2.146907    1.605307
      8          1           0        6.414902    1.077939    0.198384
      9          6           0        3.506227    1.884771    2.680522
     10          1           0        3.481192    0.923028    3.205620
     11          1           0        2.456093    2.165834    2.523294
     12          6           0        4.609136    3.185814   -1.327513
     13          1           0        5.679824    2.965307   -1.353820
     14          1           0        4.099379    2.439438   -1.939953
     15          1           0        4.451975    4.164527   -1.784014
     16          6           0        4.230209    2.943058    3.525581
     17          1           0        3.721848    3.053196    4.493705
     18          1           0        5.268152    2.656178    3.733340
     19          1           0        4.235772    3.922037    3.045582
     20          6           0        6.316474    0.030643    2.105652
     21          1           0        5.856944   -0.887758    1.714347
     22          1           0        7.400194   -0.130496    2.148621
     23          1           0        5.971238    0.186974    3.133357
     24          7           0       -8.670433    2.468186   -0.570753
     25          6           0       -7.257426    2.322951   -0.223117
     26          6           0       -6.760920    0.883030   -0.390058
     27          8           0       -7.436151   -0.036984    0.110497
     28          6           0       -7.080671    2.717836    1.260840
     29          8           0       -5.801482    2.433677    1.774698
     30          7           0       -5.620852    0.584687   -1.083400
     31          6           0       -4.709388    1.459159   -1.828092
     32          6           0       -3.610220    2.090738   -0.957278
     33          8           0       -3.886072    3.030239   -0.212848
     34          7           0       -2.323209    1.620025   -1.013976
     35          6           0       -1.698395    0.569373   -1.830738
     36          6           0       -1.936847   -0.866769   -1.317820
     37          8           0       -2.279715   -1.756942   -2.092150
     38          6           0       -0.172196    0.896598   -2.077122
     39         16           0        0.883047    1.328567   -0.529748
     40          7           0       -1.715921   -1.054553    0.011369
     41          6           0       -1.208798   -2.344960    0.495785
     42          6           0        0.321283   -2.282518    0.694601
     43          6           0       -1.873293   -2.695265    1.843917
     44          8           0       -1.300031   -2.423767    2.899768
     45          7           0       -3.083767   -3.314338    1.822261
     46          6           0       -4.029603   -3.387356    0.711575
     47          6           0       -5.262462   -2.549894    1.039955
     48          8           0       -5.600200   -2.269706    2.168373
     49          8           0       -5.933887   -2.202748   -0.073327
     50          1           0       -7.346292    3.788422    1.359376
     51          1           0       -7.790157    2.139413    1.863502
     52          1           0       -5.129730    2.870123    1.210285
     53          1           0       -6.670085    3.010978   -0.835611
     54          1           0       -9.175418    1.707756   -0.126688
     55          1           0       -8.804109    2.355130   -1.574391
     56          1           0       -5.270283    2.295050   -2.264691
     57          1           0       -4.301509    0.869331   -2.648635
     58          1           0       -5.379955   -0.400836   -1.073155
     59          1           0       -0.152819    1.820077   -2.669587
     60          1           0        0.275162    0.077920   -2.659432
     61          1           0       -2.140171    0.591842   -2.839484
     62          1           0       -1.715258    2.105279   -0.354496
     63          1           0        0.683661   -3.235019    1.101687
     64          1           0        0.558255   -1.508205    1.430949
     65          1           0       -1.457762   -3.077722   -0.260762
     66          1           0       -1.332501   -0.250341    0.514377
     67          1           0       -4.351947   -4.424268    0.542165
     68          1           0       -3.584915   -3.039150   -0.217715
     69          1           0       -3.524994   -3.352594    2.731652
     70          1           0       -6.668808   -1.552074    0.152810
     71         34           0        1.307371   -1.903742   -0.985599
     72          7           0        5.450349   -1.154467   -1.279159
     73          8           0        4.594891   -1.477323   -0.288902
     74          8           0        6.348672   -1.954697   -1.514685
     75          8           0        5.261575   -0.077525   -1.872762
 ---------------------------------------------------------------------
 Rotational constants (GHZ):      0.1236090      0.0323027      0.0297703
 General basis read from cards:  (5D, 7F)
 ======================================================================================================
                                       Pseudopotential Parameters
 ======================================================================================================
  Center     Atomic      Valence      Angular      Power
  Number     Number     Electrons     Momentum     of R      Exponent        Coefficient   SO-Coeffient
 ======================================================================================================
    1         79           19
                                      G and up 
                                                     1      622.6287956      -60.00000000    0.00000000
                                                     2      136.2843607     -555.52923120    0.00000000
                                                     2       33.1549781     -168.00197850    0.00000000
                                                     2        9.9894895      -63.03998750    0.00000000
                                                     2        3.0481312       -4.25166810    0.00000000
                                      S - G
                                                     0      194.7374304        3.00000000    0.00000000
                                                     1      351.5327447       38.60208800    0.00000000
                                                     2      122.3270402      864.83707270    0.00000000
                                                     2       32.0914617      374.99355200    0.00000000
                                                     2        5.2451812      289.79101000    0.00000000
                                                     2        4.4916223     -152.45327730    0.00000000
                                      P - G
                                                     0      420.6158801        2.00000000    0.00000000
                                                     1      109.4417815       73.88856250    0.00000000
                                                     2       34.1714280      326.67298720    0.00000000
                                                     2        5.9879750      126.58145910    0.00000000
                                      D - G
                                                     0      219.2666158        3.00000000    0.00000000
                                                     1      122.7297786       55.67931490    0.00000000
                                                     2       63.1063369      449.19873350    0.00000000
                                                     2       18.3684520      215.02690910    0.00000000
                                                     2        4.4972844       64.08409950    0.00000000
                                      F - G
                                                     0      108.5506037        4.00000000    0.00000000
                                                     1       56.4795527       51.80653350    0.00000000
                                                     2       29.2069159      231.21831130    0.00000000
                                                     2        9.5440543      119.00473860    0.00000000
                                                     2        2.8965118       15.34241880    0.00000000
    2         15
                                   No pseudopotential on this center.
    3          6
                                   No pseudopotential on this center.
    4          1
                                   No pseudopotential on this center.
    5          1
                                   No pseudopotential on this center.
    6          6
                                   No pseudopotential on this center.
    7          1
                                   No pseudopotential on this center.
    8          1
                                   No pseudopotential on this center.
    9          6
                                   No pseudopotential on this center.
   10          1
                                   No pseudopotential on this center.
   11          1
                                   No pseudopotential on this center.
   12          6
                                   No pseudopotential on this center.
   13          1
                                   No pseudopotential on this center.
   14          1
                                   No pseudopotential on this center.
   15          1
                                   No pseudopotential on this center.
   16          6
                                   No pseudopotential on this center.
   17          1
                                   No pseudopotential on this center.
   18          1
                                   No pseudopotential on this center.
   19          1
                                   No pseudopotential on this center.
   20          6
                                   No pseudopotential on this center.
   21          1
                                   No pseudopotential on this center.
   22          1
                                   No pseudopotential on this center.
   23          1
                                   No pseudopotential on this center.
   24          7
                                   No pseudopotential on this center.
   25          6
                                   No pseudopotential on this center.
   26          6
                                   No pseudopotential on this center.
   27          8
                                   No pseudopotential on this center.
   28          6
                                   No pseudopotential on this center.
   29          8
                                   No pseudopotential on this center.
   30          7
                                   No pseudopotential on this center.
   31          6
                                   No pseudopotential on this center.
   32          6
                                   No pseudopotential on this center.
   33          8
                                   No pseudopotential on this center.
   34          7
                                   No pseudopotential on this center.
   35          6
                                   No pseudopotential on this center.
   36          6
                                   No pseudopotential on this center.
   37          8
                                   No pseudopotential on this center.
   38          6
                                   No pseudopotential on this center.
   39         16
                                   No pseudopotential on this center.
   40          7
                                   No pseudopotential on this center.
   41          6
                                   No pseudopotential on this center.
   42          6
                                   No pseudopotential on this center.
   43          6
                                   No pseudopotential on this center.
   44          8
                                   No pseudopotential on this center.
   45          7
                                   No pseudopotential on this center.
   46          6
                                   No pseudopotential on this center.
   47          6
                                   No pseudopotential on this center.
   48          8
                                   No pseudopotential on this center.
   49          8
                                   No pseudopotential on this center.
   50          1
                                   No pseudopotential on this center.
   51          1
                                   No pseudopotential on this center.
   52          1
                                   No pseudopotential on this center.
   53          1
                                   No pseudopotential on this center.
   54          1
                                   No pseudopotential on this center.
   55          1
                                   No pseudopotential on this center.
   56          1
                                   No pseudopotential on this center.
   57          1
                                   No pseudopotential on this center.
   58          1
                                   No pseudopotential on this center.
   59          1
                                   No pseudopotential on this center.
   60          1
                                   No pseudopotential on this center.
   61          1
                                   No pseudopotential on this center.
   62          1
                                   No pseudopotential on this center.
   63          1
                                   No pseudopotential on this center.
   64          1
                                   No pseudopotential on this center.
   65          1
                                   No pseudopotential on this center.
   66          1
                                   No pseudopotential on this center.
   67          1
                                   No pseudopotential on this center.
   68          1
                                   No pseudopotential on this center.
   69          1
                                   No pseudopotential on this center.
   70          1
                                   No pseudopotential on this center.
   71         34
                                   No pseudopotential on this center.
   72          7
                                   No pseudopotential on this center.
   73          8
                                   No pseudopotential on this center.
   74          8
                                   No pseudopotential on this center.
   75          8
                                   No pseudopotential on this center.
 ======================================================================================================
 There are   713 symmetry adapted cartesian basis functions of A   symmetry.
 There are   668 symmetry adapted basis functions of A   symmetry.
   668 basis functions,  1359 primitive gaussians,   713 cartesian basis functions
   178 alpha electrons      178 beta electrons
       nuclear repulsion energy      6598.1430861275 Hartrees.
 NAtoms=   75 NActive=   75 NUniq=   75 SFac= 1.00D+00 NAtFMM=   60 NAOKFM=T Big=T
 Integral buffers will be    131072 words long.
 Raffenetti 2 integral format.
 Two-electron integral symmetry is turned on.
 One-electron integrals computed using PRISM.
   1 Symmetry operations used in ECPInt.
 ECPInt:  NShTT=   30876 NPrTT=  185997 LenC2=   21357 LenP2D=   66179.
 LDataN:  DoStor=T MaxTD1= 7 Len=  274
 NBasis=   668 RedAO= T EigKep=  2.42D-03  NBF=   668
 NBsUse=   668 1.00D-06 EigRej= -1.00D+00 NBFU=   668
 Defaulting to unpruned grid for atomic number  79.
 ExpMin= 2.79D-02 ExpMax= 5.61D+05 ExpMxC= 5.42D+03 IAcc=3 IRadAn=         5 AccDes= 0.00D+00
 Harris functional with IExCor=  402 and IRadAn=       5 diagonalized for initial guess.
 HarFok:  IExCor=  402 AccDes= 0.00D+00 IRadAn=         5 IDoV= 1 UseB2=F ITyADJ=14
 ICtDFT=  3500011 ScaDFX=  1.000000  1.000000  1.000000  1.000000
 Defaulting to unpruned grid for atomic number  79.
 Defaulting to unpruned grid for atomic number  79.
 Defaulting to unpruned grid for atomic number  79.
 Defaulting to unpruned grid for atomic number  79.
 Defaulting to unpruned grid for atomic number  79.
 Defaulting to unpruned grid for atomic number  79.
 Defaulting to unpruned grid for atomic number  79.
 Defaulting to unpruned grid for atomic number  79.
 FoFCou: FMM=F IPFlag=           0 FMFlag=      100000 FMFlg1=        2001
         NFxFlg=           0 DoJE=T BraDBF=F KetDBF=T FulRan=T
         wScrn=  0.000000 ICntrl=     500 IOpCl=  0 I1Cent=   200000004 NGrid=           0
         NMat0=    1 NMatS0=      1 NMatT0=    0 NMatD0=    1 NMtDS0=    0 NMtDT0=    0
 Petite list used in FoFCou.
 Requested convergence on RMS density matrix=1.00D-08 within 128 cycles.
 Requested convergence on MAX density matrix=1.00D-06.
 Requested convergence on             energy=1.00D-06.
 No special actions if energy rises.
 Defaulting to unpruned grid for atomic number  79.
 Defaulting to unpruned grid for atomic number  79.
 Defaulting to unpruned grid for atomic number  79.
 Defaulting to unpruned grid for atomic number  79.
 Defaulting to unpruned grid for atomic number  79.
 Defaulting to unpruned grid for atomic number  79.
 Defaulting to unpruned grid for atomic number  79.
 Defaulting to unpruned grid for atomic number  79.
 EnCoef did     5 forward-backward iterations
 SCF Done:  E(RB3LYP) =  -5100.32222291     A.U. after   19 cycles
            NFock= 19  Conv=0.60D-08     -V/T= 2.0195

 **********************************************************************

            Population analysis using the SCF density.

 **********************************************************************

 Orbital symmetries:
       Occupied  (A) (A) (A) (A) (A) (A) (A) (A) (A) (A) (A) (A)
                 (A) (A) (A) (A) (A) (A) (A) (A) (A) (A) (A) (A)
                 (A) (A) (A) (A) (A) (A) (A) (A) (A) (A) (A) (A)
                 (A) (A) (A) (A) (A) (A) (A) (A) (A) (A) (A) (A)
                 (A) (A) (A) (A) (A) (A) (A) (A) (A) (A) (A) (A)
                 (A) (A) (A) (A) (A) (A) (A) (A) (A) (A) (A) (A)
                 (A) (A) (A) (A) (A) (A) (A) (A) (A) (A) (A) (A)
                 (A) (A) (A) (A) (A) (A) (A) (A) (A) (A) (A) (A)
                 (A) (A) (A) (A) (A) (A) (A) (A) (A) (A) (A) (A)
                 (A) (A) (A) (A) (A) (A) (A) (A) (A) (A) (A) (A)
                 (A) (A) (A) (A) (A) (A) (A) (A) (A) (A) (A) (A)
                 (A) (A) (A) (A) (A) (A) (A) (A) (A) (A) (A) (A)
                 (A) (A) (A) (A) (A) (A) (A) (A) (A) (A) (A) (A)
                 (A) (A) (A) (A) (A) (A) (A) (A) (A) (A) (A) (A)
                 (A) (A) (A) (A) (A) (A) (A) (A) (A) (A)
       Virtual   (A) (A) (A) (A) (A) (A) (A) (A) (A) (A) (A) (A)
                 (A) (A) (A) (A) (A) (A) (A) (A) (A) (A) (A) (A)
                 (A) (A) (A) (A) (A) (A) (A) (A) (A) (A) (A) (A)
                 (A) (A) (A) (A) (A) (A) (A) (A) (A) (A) (A) (A)
                 (A) (A) (A) (A) (A) (A) (A) (A) (A) (A) (A) (A)
                 (A) (A) (A) (A) (A) (A) (A) (A) (A) (A) (A) (A)
                 (A) (A) (A) (A) (A) (A) (A) (A) (A) (A) (A) (A)
                 (A) (A) (A) (A) (A) (A) (A) (A) (A) (A) (A) (A)
                 (A) (A) (A) (A) (A) (A) (A) (A) (A) (A) (A) (A)
                 (A) (A) (A) (A) (A) (A) (A) (A) (A) (A) (A) (A)
                 (A) (A) (A) (A) (A) (A) (A) (A) (A) (A) (A) (A)
                 (A) (A) (A) (A) (A) (A) (A) (A) (A) (A) (A) (A)
                 (A) (A) (A) (A) (A) (A) (A) (A) (A) (A) (A) (A)
                 (A) (A) (A) (A) (A) (A) (A) (A) (A) (A) (A) (A)
                 (A) (A) (A) (A) (A) (A) (A) (A) (A) (A) (A) (A)
                 (A) (A) (A) (A) (A) (A) (A) (A) (A) (A) (A) (A)
                 (A) (A) (A) (A) (A) (A) (A) (A) (A) (A) (A) (A)
                 (A) (A) (A) (A) (A) (A) (A) (A) (A) (A) (A) (A)
                 (A) (A) (A) (A) (A) (A) (A) (A) (A) (A) (A) (A)
                 (A) (A) (A) (A) (A) (A) (A) (A) (A) (A) (A) (A)
                 (A) (A) (A) (A) (A) (A) (A) (A) (A) (A) (A) (A)
                 (A) (A) (A) (A) (A) (A) (A) (A) (A) (A) (A) (A)
                 (A) (A) (A) (A) (A) (A) (A) (A) (A) (A) (A) (A)
                 (A) (A) (A) (A) (A) (A) (A) (A) (A) (A) (A) (A)
                 (A) (A) (A) (A) (A) (A) (A) (A) (A) (A) (A) (A)
                 (A) (A) (A) (A) (A) (A) (A) (A) (A) (A) (A) (A)
                 (A) (A) (A) (A) (A) (A) (A) (A) (A) (A) (A) (A)
                 (A) (A) (A) (A) (A) (A) (A) (A) (A) (A) (A) (A)
                 (A) (A) (A) (A) (A) (A) (A) (A) (A) (A) (A) (A)
                 (A) (A) (A) (A) (A) (A) (A) (A) (A) (A) (A) (A)
                 (A) (A) (A) (A) (A) (A) (A) (A) (A) (A) (A) (A)
                 (A) (A) (A) (A) (A) (A) (A) (A) (A) (A) (A) (A)
                 (A) (A) (A) (A) (A) (A) (A) (A) (A) (A) (A) (A)
                 (A) (A) (A) (A) (A) (A) (A) (A) (A) (A) (A) (A)
                 (A) (A) (A) (A) (A) (A) (A) (A) (A) (A) (A) (A)
                 (A) (A) (A) (A) (A) (A) (A) (A) (A) (A) (A) (A)
                 (A) (A) (A) (A) (A) (A) (A) (A) (A) (A) (A) (A)
                 (A) (A) (A) (A) (A) (A) (A) (A) (A) (A) (A) (A)
                 (A) (A) (A) (A) (A) (A) (A) (A) (A) (A) (A) (A)
                 (A) (A) (A) (A) (A) (A) (A) (A) (A) (A) (A) (A)
                 (A) (A) (A) (A) (A) (A) (A) (A) (A) (A)
 The electronic state is 1-A.
 Alpha  occ. eigenvalues -- -453.56654 -88.89551 -77.14295 -57.28592 -52.06156
 Alpha  occ. eigenvalues --  -52.06061 -52.05789 -19.19776 -19.17705 -19.17649
 Alpha  occ. eigenvalues --  -19.17467 -19.14701 -19.14077 -19.13399 -19.13399
 Alpha  occ. eigenvalues --  -19.11709 -19.11363 -14.60200 -14.39364 -14.37966
 Alpha  occ. eigenvalues --  -14.37794 -14.36054 -14.31406 -10.32395 -10.31605
 Alpha  occ. eigenvalues --  -10.31026 -10.30214 -10.29381 -10.27469 -10.26091
 Alpha  occ. eigenvalues --  -10.25400 -10.24831 -10.23527 -10.23318 -10.22703
 Alpha  occ. eigenvalues --  -10.22653 -10.22244 -10.22001 -10.21457 -10.21387
 Alpha  occ. eigenvalues --  -10.20028 -10.19776  -7.96712  -7.63630  -6.62262
 Alpha  occ. eigenvalues --   -5.93138  -5.92831  -5.92147  -5.76645  -5.76354
 Alpha  occ. eigenvalues --   -5.75347  -4.78389  -4.78365  -4.78226  -4.25000
 Alpha  occ. eigenvalues --   -2.38885  -2.38657  -2.36619  -2.12846  -2.12821
 Alpha  occ. eigenvalues --   -2.11990  -2.11756  -2.11558  -1.24472  -1.09454
 Alpha  occ. eigenvalues --   -1.07028  -1.05964  -1.05166  -1.05001  -1.03809
 Alpha  occ. eigenvalues --   -1.01690  -1.00958  -0.99643  -0.96089  -0.94567
 Alpha  occ. eigenvalues --   -0.94029  -0.92822  -0.89169  -0.83789  -0.81483
 Alpha  occ. eigenvalues --   -0.79485  -0.79241  -0.79042  -0.76197  -0.74847
 Alpha  occ. eigenvalues --   -0.73275  -0.72537  -0.70879  -0.70306  -0.66265
 Alpha  occ. eigenvalues --   -0.65121  -0.64998  -0.64637  -0.63096  -0.62897
 Alpha  occ. eigenvalues --   -0.62505  -0.61364  -0.60732  -0.58756  -0.58159
 Alpha  occ. eigenvalues --   -0.57594  -0.55547  -0.54701  -0.54416  -0.53289
 Alpha  occ. eigenvalues --   -0.52739  -0.51919  -0.51584  -0.51120  -0.50531
 Alpha  occ. eigenvalues --   -0.50356  -0.50186  -0.49957  -0.49299  -0.48829
 Alpha  occ. eigenvalues --   -0.48474  -0.48229  -0.47460  -0.47068  -0.46652
 Alpha  occ. eigenvalues --   -0.46176  -0.45703  -0.45329  -0.45281  -0.44982
 Alpha  occ. eigenvalues --   -0.44659  -0.44303  -0.44070  -0.43466  -0.42905
 Alpha  occ. eigenvalues --   -0.42702  -0.42275  -0.42042  -0.41996  -0.41583
 Alpha  occ. eigenvalues --   -0.41463  -0.41229  -0.40972  -0.40753  -0.40295
 Alpha  occ. eigenvalues --   -0.40196  -0.39917  -0.39819  -0.39461  -0.38945
 Alpha  occ. eigenvalues --   -0.38773  -0.38656  -0.38383  -0.38007  -0.37851
 Alpha  occ. eigenvalues --   -0.37614  -0.37299  -0.36228  -0.35592  -0.35305
 Alpha  occ. eigenvalues --   -0.35053  -0.33672  -0.32212  -0.31707  -0.31524
 Alpha  occ. eigenvalues --   -0.31439  -0.30907  -0.30551  -0.30010  -0.29938
 Alpha  occ. eigenvalues --   -0.29159  -0.28448  -0.27739  -0.27517  -0.27173
 Alpha  occ. eigenvalues --   -0.26930  -0.26824  -0.26041  -0.25709  -0.25327
 Alpha  occ. eigenvalues --   -0.25070  -0.24125  -0.22389
 Alpha virt. eigenvalues --   -0.14509  -0.04779  -0.03854  -0.02860  -0.02186
 Alpha virt. eigenvalues --   -0.01127  -0.00149   0.00373   0.00759   0.01269
 Alpha virt. eigenvalues --    0.02123   0.02407   0.03647   0.03925   0.04846
 Alpha virt. eigenvalues --    0.05681   0.06521   0.07671   0.07816   0.08173
 Alpha virt. eigenvalues --    0.08694   0.09089   0.09585   0.09769   0.10448
 Alpha virt. eigenvalues --    0.10766   0.11153   0.11495   0.11924   0.12050
 Alpha virt. eigenvalues --    0.12453   0.12781   0.13035   0.13523   0.13702
 Alpha virt. eigenvalues --    0.13719   0.14231   0.14763   0.14948   0.15074
 Alpha virt. eigenvalues --    0.15278   0.15593   0.15941   0.16458   0.16636
 Alpha virt. eigenvalues --    0.17147   0.17377   0.17546   0.17761   0.17996
 Alpha virt. eigenvalues --    0.18235   0.18422   0.18500   0.18669   0.18830
 Alpha virt. eigenvalues --    0.19115   0.19925   0.20132   0.20444   0.21322
 Alpha virt. eigenvalues --    0.21677   0.21905   0.22683   0.22956   0.23457
 Alpha virt. eigenvalues --    0.23680   0.24363   0.25454   0.25601   0.25725
 Alpha virt. eigenvalues --    0.26218   0.26546   0.27636   0.29267   0.30209
 Alpha virt. eigenvalues --    0.31317   0.31671   0.32535   0.32960   0.33880
 Alpha virt. eigenvalues --    0.34618   0.35519   0.35748   0.36381   0.36553
 Alpha virt. eigenvalues --    0.37386   0.37595   0.38202   0.38354   0.38728
 Alpha virt. eigenvalues --    0.38894   0.40467   0.41622   0.42404   0.42501
 Alpha virt. eigenvalues --    0.43554   0.44512   0.45863   0.46197   0.46572
 Alpha virt. eigenvalues --    0.47125   0.47957   0.48573   0.49661   0.50144
 Alpha virt. eigenvalues --    0.51019   0.51397   0.52257   0.53011   0.53402
 Alpha virt. eigenvalues --    0.53636   0.53947   0.54799   0.54849   0.55334
 Alpha virt. eigenvalues --    0.55721   0.56407   0.56946   0.57301   0.57518
 Alpha virt. eigenvalues --    0.57615   0.58015   0.58799   0.59101   0.59636
 Alpha virt. eigenvalues --    0.59973   0.61232   0.61369   0.61838   0.62176
 Alpha virt. eigenvalues --    0.62630   0.63157   0.63746   0.63871   0.64245
 Alpha virt. eigenvalues --    0.65047   0.65521   0.65993   0.66321   0.66663
 Alpha virt. eigenvalues --    0.66757   0.67207   0.67627   0.68231   0.68849
 Alpha virt. eigenvalues --    0.69301   0.70498   0.70555   0.71280   0.71758
 Alpha virt. eigenvalues --    0.72309   0.72794   0.72992   0.73345   0.73492
 Alpha virt. eigenvalues --    0.74093   0.74561   0.75437   0.76036   0.76345
 Alpha virt. eigenvalues --    0.77061   0.77395   0.77575   0.78373   0.78658
 Alpha virt. eigenvalues --    0.79479   0.79708   0.80237   0.80463   0.81058
 Alpha virt. eigenvalues --    0.81257   0.81735   0.81871   0.82624   0.82776
 Alpha virt. eigenvalues --    0.83719   0.83787   0.84048   0.84249   0.84591
 Alpha virt. eigenvalues --    0.85240   0.85497   0.85623   0.85808   0.86381
 Alpha virt. eigenvalues --    0.86672   0.86870   0.87065   0.87146   0.87717
 Alpha virt. eigenvalues --    0.88166   0.88498   0.88682   0.88885   0.89024
 Alpha virt. eigenvalues --    0.89377   0.89632   0.89830   0.90428   0.90995
 Alpha virt. eigenvalues --    0.91179   0.91513   0.91980   0.92187   0.92357
 Alpha virt. eigenvalues --    0.93160   0.93391   0.93474   0.93977   0.94271
 Alpha virt. eigenvalues --    0.94488   0.94893   0.95148   0.95693   0.96345
 Alpha virt. eigenvalues --    0.96840   0.96888   0.97519   0.98125   0.98212
 Alpha virt. eigenvalues --    0.98392   0.98715   0.99064   0.99247   0.99497
 Alpha virt. eigenvalues --    0.99663   1.00505   1.01240   1.01309   1.01433
 Alpha virt. eigenvalues --    1.02069   1.02664   1.03113   1.03396   1.04300
 Alpha virt. eigenvalues --    1.05355   1.06490   1.07566   1.08227   1.08927
 Alpha virt. eigenvalues --    1.08999   1.09399   1.09976   1.10712   1.11072
 Alpha virt. eigenvalues --    1.12208   1.12701   1.13138   1.15215   1.15344
 Alpha virt. eigenvalues --    1.15639   1.15933   1.16656   1.19743   1.19978
 Alpha virt. eigenvalues --    1.20562   1.21657   1.22434   1.22809   1.24432
 Alpha virt. eigenvalues --    1.25100   1.25665   1.26123   1.26613   1.26725
 Alpha virt. eigenvalues --    1.29534   1.30873   1.31842   1.32384   1.34528
 Alpha virt. eigenvalues --    1.34603   1.35962   1.36828   1.38428   1.38654
 Alpha virt. eigenvalues --    1.39439   1.40466   1.40973   1.42210   1.42612
 Alpha virt. eigenvalues --    1.44857   1.45808   1.46585   1.47353   1.47694
 Alpha virt. eigenvalues --    1.48397   1.50089   1.50508   1.51009   1.51658
 Alpha virt. eigenvalues --    1.52424   1.53153   1.53356   1.54411   1.55109
 Alpha virt. eigenvalues --    1.55171   1.56125   1.57844   1.58277   1.59577
 Alpha virt. eigenvalues --    1.59958   1.60492   1.60555   1.62159   1.63119
 Alpha virt. eigenvalues --    1.64069   1.64859   1.65846   1.66738   1.67603
 Alpha virt. eigenvalues --    1.68003   1.69353   1.69805   1.70783   1.70917
 Alpha virt. eigenvalues --    1.71922   1.73057   1.73338   1.73900   1.74677
 Alpha virt. eigenvalues --    1.75776   1.76934   1.77966   1.77993   1.79202
 Alpha virt. eigenvalues --    1.79803   1.80107   1.80151   1.80552   1.80989
 Alpha virt. eigenvalues --    1.81902   1.82397   1.82574   1.82937   1.83120
 Alpha virt. eigenvalues --    1.84155   1.84217   1.84603   1.85419   1.86248
 Alpha virt. eigenvalues --    1.86738   1.86817   1.87756   1.88191   1.88787
 Alpha virt. eigenvalues --    1.89012   1.90143   1.91115   1.91869   1.92028
 Alpha virt. eigenvalues --    1.92367   1.92722   1.92965   1.93068   1.93332
 Alpha virt. eigenvalues --    1.93736   1.94164   1.94406   1.94969   1.95006
 Alpha virt. eigenvalues --    1.95768   1.95898   1.95953   1.96647   1.97254
 Alpha virt. eigenvalues --    1.97812   1.98021   1.98589   1.99028   1.99189
 Alpha virt. eigenvalues --    1.99797   2.00018   2.00385   2.00568   2.01028
 Alpha virt. eigenvalues --    2.01384   2.01860   2.02076   2.02478   2.03629
 Alpha virt. eigenvalues --    2.04016   2.05211   2.05911   2.06654   2.06985
 Alpha virt. eigenvalues --    2.08180   2.10167   2.10405   2.10787   2.11356
 Alpha virt. eigenvalues --    2.11431   2.12916   2.13182   2.13814   2.15067
 Alpha virt. eigenvalues --    2.15200   2.15954   2.16361   2.17226   2.18007
 Alpha virt. eigenvalues --    2.18622   2.19564   2.21668   2.22765   2.23410
 Alpha virt. eigenvalues --    2.23688   2.24462   2.25511   2.26038   2.26157
 Alpha virt. eigenvalues --    2.26889   2.27061   2.27144   2.28419   2.28665
 Alpha virt. eigenvalues --    2.29972   2.30080   2.30464   2.30899   2.30982
 Alpha virt. eigenvalues --    2.31956   2.32053   2.34180   2.35076   2.36157
 Alpha virt. eigenvalues --    2.36672   2.38297   2.39025   2.39993   2.41375
 Alpha virt. eigenvalues --    2.42227   2.43148   2.44646   2.45652   2.46160
 Alpha virt. eigenvalues --    2.48245   2.49900   2.51128   2.52590   2.53683
 Alpha virt. eigenvalues --    2.55055   2.55144   2.55588   2.57076   2.57352
 Alpha virt. eigenvalues --    2.57891   2.58333   2.59555   2.60655   2.61148
 Alpha virt. eigenvalues --    2.61263   2.63333   2.64836   2.65258   2.66427
 Alpha virt. eigenvalues --    2.67033   2.67366   2.67967   2.71134   2.71400
 Alpha virt. eigenvalues --    2.73194   2.76936   2.81403   2.82532   2.82864
 Alpha virt. eigenvalues --    2.86262   2.87079   2.88863   2.89383   2.90390
 Alpha virt. eigenvalues --    2.91885   2.93228   2.94148   2.97741   2.99368
 Alpha virt. eigenvalues --    2.99717   3.00748   3.01084   3.04112   3.06737
 Alpha virt. eigenvalues --    3.09483   3.09741   3.11950   3.13478   3.14389
 Alpha virt. eigenvalues --    7.98450  15.54618  15.62664  15.69034  43.14692
          Condensed to atoms (all electrons):
 Mulliken charges:
               1
     1  Au  -0.062898
     2  P    0.655304
     3  C   -0.456068
     4  H    0.175268
     5  H    0.200065
     6  C   -0.465645
     7  H    0.178527
     8  H    0.217366
     9  C   -0.465363
    10  H    0.201672
    11  H    0.199933
    12  C   -0.466991
    13  H    0.168819
    14  H    0.215860
    15  H    0.162519
    16  C   -0.458403
    17  H    0.175547
    18  H    0.165200
    19  H    0.164755
    20  C   -0.487568
    21  H    0.220068
    22  H    0.172474
    23  H    0.154617
    24  N   -0.701990
    25  C   -0.107634
    26  C    0.591482
    27  O   -0.528021
    28  C    0.004088
    29  O   -0.659303
    30  N   -0.592399
    31  C   -0.239391
    32  C    0.567872
    33  O   -0.478117
    34  N   -0.584559
    35  C   -0.079649
    36  C    0.574859
    37  O   -0.472528
    38  C   -0.421897
    39  S   -0.017226
    40  N   -0.554227
    41  C   -0.091887
    42  C   -0.355375
    43  C    0.553141
    44  O   -0.469526
    45  N   -0.555711
    46  C   -0.250485
    47  C    0.550586
    48  O   -0.411615
    49  O   -0.620627
    50  H    0.132880
    51  H    0.153616
    52  H    0.430051
    53  H    0.139731
    54  H    0.319474
    55  H    0.299176
    56  H    0.194121
    57  H    0.180562
    58  H    0.364710
    59  H    0.197749
    60  H    0.236635
    61  H    0.184010
    62  H    0.359052
    63  H    0.205885
    64  H    0.215902
    65  H    0.197780
    66  H    0.349320
    67  H    0.191641
    68  H    0.210026
    69  H    0.351396
    70  H    0.458012
    71  Se  -0.092920
    72  N    0.713633
    73  O   -0.452494
    74  O   -0.360631
    75  O   -0.394231
 Sum of Mulliken charges =   0.00000
 Mulliken charges with hydrogens summed into heavy atoms:
               1
     1  Au  -0.062898
     2  P    0.655304
     3  C   -0.080735
     6  C   -0.069752
     9  C   -0.063758
    12  C    0.080207
    16  C    0.047099
    20  C    0.059590
    24  N   -0.083341
    25  C    0.032097
    26  C    0.591482
    27  O   -0.528021
    28  C    0.290583
    29  O   -0.229252
    30  N   -0.227689
    31  C    0.135292
    32  C    0.567872
    33  O   -0.478117
    34  N   -0.225507
    35  C    0.104361
    36  C    0.574859
    37  O   -0.472528
    38  C    0.012486
    39  S   -0.017226
    40  N   -0.204908
    41  C    0.105894
    42  C    0.066412
    43  C    0.553141
    44  O   -0.469526
    45  N   -0.204314
    46  C    0.151182
    47  C    0.550586
    48  O   -0.411615
    49  O   -0.162614
    71  Se  -0.092920
    72  N    0.713633
    73  O   -0.452494
    74  O   -0.360631
    75  O   -0.394231
 Electronic spatial extent (au):  <R**2>=          33188.0119
 Charge=              0.0000 electrons
 Dipole moment (field-independent basis, Debye):
    X=              4.8716    Y=              6.7285    Z=             -1.5295  Tot=              8.4466
 Quadrupole moment (field-independent basis, Debye-Ang):
   XX=           -303.0351   YY=           -273.1121   ZZ=           -280.3571
   XY=             37.0920   XZ=             58.7873   YZ=             -5.0525
 Traceless Quadrupole moment (field-independent basis, Debye-Ang):
   XX=            -17.5337   YY=             12.3894   ZZ=              5.1443
   XY=             37.0920   XZ=             58.7873   YZ=             -5.0525
 Octapole moment (field-independent basis, Debye-Ang**2):
  XXX=            509.5633  YYY=           -115.0865  ZZZ=            -81.7533  XYY=            153.1768
  XXY=             98.8191  XXZ=            -36.2499  XZZ=            146.2827  YZZ=             41.1043
  YYZ=             -3.5953  XYZ=             51.7287
 Hexadecapole moment (field-independent basis, Debye-Ang**3):
 XXXX=         -33607.3046 YYYY=          -6616.7475 ZZZZ=          -3692.5361 XXXY=           1109.8652
 XXXZ=           1772.4247 YYYX=            453.2374 YYYZ=              8.7803 ZZZX=            124.0829
 ZZZY=             92.6222 XXYY=          -6773.2977 XXZZ=          -5969.5339 YYZZ=          -1755.2506
 XXYZ=           -189.2612 YYXZ=             16.7086 ZZXY=           -100.5592
 N-N= 6.598143086127D+03 E-N=-2.525079175166D+04  KE= 5.002632956418D+03
   1 Symmetry operations used in ECPInt.
 ECPInt:  NShTT=   30876 NPrTT=  185997 LenC2=   21357 LenP2D=   66179.
 LDataN:  DoStor=T MaxTD1= 8 Len=  415
 Calling FoFJK, ICntrl=      2127 FMM=T ISym2X=0 I1Cent= 0 IOpClX= 0 NMat=1 NMatS=1 NMatT=0.
 Defaulting to unpruned grid for atomic number  79.
 Defaulting to unpruned grid for atomic number  79.
 Defaulting to unpruned grid for atomic number  79.
 Defaulting to unpruned grid for atomic number  79.
 Defaulting to unpruned grid for atomic number  79.
 Defaulting to unpruned grid for atomic number  79.
 Defaulting to unpruned grid for atomic number  79.
[...]
 0.00040557,-0.00008904,0.00043725,0.00026282,0.00007168,0.00115617,-0.
 00078645,-0.00076735,-0.00030572,-0.00020775,0.00068936,0.00015624,0.0
 0019887,0.00039866,0.00020172,-0.00005170,-0.00009063,-0.00005872,-0.0
 0011088,-0.00021347,0.00012543,-0.00006264,0.00010440,-0.00004289,0.00
 002538,0.00019909,-0.00014346,0.00006776,0.00000289,-0.00000533,-0.000
 00064,-0.00000403,0.00000067,0.00000231,0.00001238,0.00000588,-0.00004
 187,0.00000296,-0.00000879,0.00000617,-0.00000646,0.00000418,-0.000000
 26,-0.00000058,0.00000776,-0.00000040,-0.00001702,-0.00001439,-0.00000
 461,-0.00000273,0.00001365,-0.00000094,-0.00002203,0.00003824,-0.00001
 714,0.00033483,0.00023345,0.00032296,-0.00015360,-0.00029449,-0.000063
 58,-0.00008708,-0.00004848,0.00005206,0.00038097,0.00007000,-0.0002655
 3,0.00045883,0.00007466,-0.00002556,-0.00001506,-0.00023586,0.00058043
 ,0.00008563,-0.00006140,-0.00002548,-0.00017878,0.00003964,-0.00001324
 ,0.00003713,0.00001639,0.00001506,-0.00000624,0.00001205,-0.00000271,-
 0.00004110,0.00000129,0.00003328,-0.00007140,0.00010871,0.00000226,-0.
 00581267,-0.00103419,-0.00538837,0.03374698,0.02913363,-0.10637085,-0.
 07004538,-0.07577422,0.13779962,0.00240063,-0.00620570,0.00692591,-0.0
 0159769,-0.00228126,-0.00203982,0.00027987,0.00024067,0.00066506,0.000
 14614,0.00023603,-0.00012961,-0.00002496,-0.00023008,-0.00001503,-0.00
 026448,0.00074534,0.00049111,0.00033249,-0.00025694,0.00019126,-0.0001
 8051,0.00051768,-0.00041054,0.00057935,0.00035335,0.00042646,-0.000015
 95,-0.00002052,-0.00009752,0.00012186,-0.00015751,-0.00015379,-0.00013
 442,0.00007461,-0.00006587,0.00003329,0.00001944,0.00005000,-0.0000879
 3,-0.00002220,0.00010327,0.00003216,0.00004714,-0.00003812,-0.00031866
 ,-0.00006238,0.00000851,0.00002063,0.00009725,0.00008255,0.00007110,0.
 00002320,0.00006861,0.00002359,0.00001818,-0.00000392,0.00018233,-0.00
 011876,0.00004885,-0.00046343,0.00027203,-0.00048093,0.00016049,0.0001
 8902,0.00054749,0.00010388,-0.00012353,-0.00002074,-0.00012336,0.00007
 698,0.00002766,0.00008523,-0.00000100,-0.00000924,0.00042959,-0.000042
 67,-0.00038711,-0.00023861,-0.00013344,0.00021820,0.00015009,-0.000052
 24,-0.00002550,-0.00019464,0.00006435,0.00012420,-0.00037837,0.0001042
 0,0.00020733,0.00011579,0.00009591,-0.00008319,0.00113662,-0.00067562,
 -0.00052706,-0.00044778,0.00052962,0.00049629,-0.00113715,0.00011590,0
 .00023348,0.00015046,-0.00016758,-0.00031152,0.00058305,0.00051380,0.0
 0039891,-0.00049781,-0.00047502,-0.00020231,0.00073013,0.00105284,-0.0
 0030696,-0.00142524,0.00252047,-0.00096129,-0.00038578,-0.00009626,0.0
 0008599,0.00015709,0.00005672,-0.00004140,0.00047554,-0.00071541,-0.00
 000497,0.00052857,0.00038463,-0.00057301,-0.00032590,-0.00028587,0.000
 36379,-0.00035149,-0.00030423,0.00029677,0.00010300,0.00013111,0.00007
 403,0.00014510,-0.00010139,-0.00016773,-0.00010641,0.00003501,0.000137
 19,-0.00012576,-0.00001755,0.00006435,-0.00001754,0.00003663,0.0000017
 9,-0.00002585,-0.00001283,0.00001099,0.00013958,-0.00005857,-0.0001947
 6,0.00001476,-0.00002576,0.00002660,0.00003333,-0.00003731,-0.00001869
 ,0.00002849,-0.00002956,-0.00000345,-0.00005097,-0.00000578,0.00000921
 ,0.00004320,-0.00000618,0.00004621,0.00006600,0.00002623,-0.00000202,-
 0.00053435,-0.00040950,-0.00016420,-0.00018401,-0.00022303,0.00013051,
 -0.00015446,-0.00000923,0.00009868,0.00044448,-0.00004148,-0.00016221,
 -0.00045212,-0.00004688,0.00010730,0.00006614,0.00033107,-0.00029554,-
 0.00004395,0.00000665,0.00000984,0.00037315,0.00018996,-0.00025033,-0.
 00004664,-0.00003442,-0.00000607,0.00003505,0.00004180,-0.00001533,-0.
 00002479,0.00005822,-0.00006958,0.00005305,0.00004700,-0.00003067,0.00
 060215,0.00018000,0.00081252,-0.26153234,0.20554226,-0.07632159,-0.081
 42038,0.06463997,-0.00311252,0.30729571,-0.00423704,0.00560122,0.00002
 902,0.00058535,0.00143581,0.00139322,-0.00028393,-0.00000298,-0.000183
 30,0.00002072,-0.00013362,-0.00006417,0.00008235,0.00006026,-0.0000510
 3,0.00017395,-0.00003183,-0.00012652,-0.00012878,0.00011445,-0.0001315
 6,0.00009386,-0.00033220,0.00075341,-0.00054715,-0.00029862,-0.0003167
 6,0.00002656,-0.00000813,0.00002892,-0.00003884,0.00003984,0.00004207,
 -0.00002438,0.00005125,0.00046126,0.00026990,0.00022682,0.00018794,-0.
 00031025,0.00029905,-0.00051570,0.00007693,-0.00033187,-0.00012582,0.0
 0037807,0.00001551,-0.00002035,-0.00001648,-0.00010578,-0.00010373,-0.
 00006330,-0.00000655,-0.00002316,-0.00003486,0.00001341,0.00000907,-0.
 00013721,-0.00009285,-0.00013023,0.00032313,-0.00025071,0.00033679,-0.
 00013130,-0.00013081,-0.00038001,-0.00002004,0.00017363,-0.00005486,0.
 00007387,-0.00003731,-0.00001404,-0.00005017,-0.00000228,0.00000654,-0
 .00026825,0.00000054,0.00024530,0.00014316,0.00011908,-0.00014200,-0.0
 0010202,0.00002496,0.00001016,0.00013238,-0.00002589,-0.00006506,0.000
 23449,-0.00005292,-0.00013037,-0.00007288,-0.00006049,0.00005226,-0.00
 064790,0.00035199,0.00027501,0.00027178,-0.00027013,-0.00025855,0.0006
 3706,-0.00005956,-0.00011212,-0.00004594,0.00009014,0.00017776,-0.0003
 6606,-0.00023939,-0.00023906,0.00032549,0.00029725,0.00012171,-0.00045
 533,-0.00016521,-0.00018549,-0.00010049,-0.00065789,-0.00014767,0.0002
 1739,0.00005956,-0.00003994,-0.00006780,-0.00002921,-0.00012378,-0.000
 12770,0.00017410,0.00036673,-0.00023212,-0.00029834,0.00043615,0.00012
 860,0.00030037,-0.00029594,0.00018794,0.00022511,-0.00020945,-0.000051
 35,-0.00008684,-0.00003019,-0.00003357,0.00002393,0.00010616,0.0000441
 2,0.00000304,-0.00008199,0.00003263,0.00005298,-0.00005156,0.00001047,
 -0.00001912,0.00000054,0.00001759,0.00000805,-0.00000745,-0.00009165,0
 .00002621,0.00010649,-0.00000865,0.00001677,-0.00001753,-0.00001898,0.
 00001983,0.00001000,-0.00001618,0.00001500,0.00000314,0.00002883,0.000
 00506,-0.00000596,-0.00002311,0.00000422,-0.00002578,-0.00004025,-0.00
 002739,0.00000525,0.00013480,0.00010344,0.00002368,0.00006762,0.000148
 58,0.00000845,0.00009055,0.00000407,-0.00004942,-0.00025902,0.00003781
 ,0.00005775,0.00042474,0.00010869,-0.00002344,-0.00005904,-0.00039656,
 0.00014610,0.00002083,-0.00000201,0.00000021,-0.00032604,-0.00005799,0
 .00010904,0.00003095,0.00002169,0.00000152,-0.00002366,-0.00003317,0.0
 0001079,0.00003450,-0.00005987,0.00003843,-0.00001406,-0.00006578,0.00
 001774,0.00038735,0.00006014,-0.00007023,0.19819665,-0.37652904,0.1221
 6025,0.05080975,-0.00359706,-0.00472797,-0.27356431,0.44497800,0.00245
 197,0.00276149,0.00014038,0.00006946,0.00000887,-0.00061464,0.00019575
 ,-0.00013035,-0.00005307,-0.00008393,0.00005215,0.00008368,-0.00006457
 ,0.00004325,0.00006987,0.00019152,-0.00015971,0.00016631,-0.00007965,-
 0.00004239,0.00007275,-0.00056132,0.00039467,-0.00074270,0.00029502,0.
 00004015,0.00016130,-0.00005312,0.00000975,0.00001348,-0.00000147,0.00
 001535,0.00001591,0.00014201,-0.00000372,-0.00043459,-0.00029893,-0.00
 018918,-0.00023854,0.00033153,-0.00016663,0.00043505,-0.00011373,0.000
 28633,0.00013481,-0.00020838,0.00003759,0.00002609,0.00000610,0.000049
 02,0.00004957,0.00002273,0.00000475,0.00000040,0.00001924,-0.00002316,
 -0.00000160,0.00005068,0.00026098,0.00013087,-0.00046442,0.00034260,-0
 .00003124,0.00013896,0.00013716,0.00037264,0.00002878,-0.00022712,0.00
 006210,-0.00000001,-0.00000138,0.00000048,-0.00000041,0.00000029,0.000
 00006,0.00000639,0.00000581,-0.00000878,-0.00000205,-0.00000837,0.0000
 0622,0.00000090,0.00000227,-0.00000168,-0.00000186,-0.00000280,-0.0000
 0007,-0.00000238,0.00000093,0.00000527,0.00000224,-0.00000655,-0.00000
 256,-0.00003350,0.00003468,0.00002681,0.00000820,-0.00002078,-0.000016
 94,0.00005179,0.00001544,-0.00003115,-0.00001604,-0.00001331,0.0000038
 1,0.00005025,-0.00010689,0.00007170,-0.00004010,0.00003173,-0.00001483
 ,-0.00011329,-0.00024819,0.00008070,0.00078752,-0.00143137,0.00027431,
 -0.00005754,0.00008451,-0.00003941,0.00003190,-0.00008126,0.00008152,-
 0.00007868,0.00019638,-0.00011607,-0.00004410,0.00005259,-0.00014755,0
 .00002983,-0.00006444,0.00012601,-0.00000168,-0.00002564,0.00005171,-0
 .00000379,0.00000943,-0.00000073,-0.00000418,-0.00000476,-0.00002669,-
 0.00000037,0.00000202,0.00002120,0.00000794,-0.00000595,0.00001338,0.0
 0000031,-0.00000064,-0.00000010,-0.00000086,-0.00000060,0.00000036,0.0
 0000148,0.00000216,0.00000355,-0.00000065,-0.00000026,0.00000062,0.000
 00026,-0.00000018,-0.00000059,0.00000004,0.00000120,-0.00000026,0.0000
 0275,0.00000053,0.00000044,-0.00000089,-0.00000191,0.00000048,0.000003
 06,0.00000037,-0.00000419,0.00008405,0.00012207,0.00003859,0.00003566,
 0.00010319,-0.00000818,0.00001246,0.00000627,-0.00001136,-0.00004195,-
 0.00001788,0.00005045,-0.00000790,-0.00003137,-0.00000268,0.00000125,0
 .00004337,-0.00000948,-0.00000407,-0.00000214,0.00000229,0.00007056,-0
 .00006717,0.00002545,-0.00000233,-0.00000075,-0.00000204,0.00000611,0.
 00000096,0.00000005,-0.00001477,0.00000728,-0.00000730,-0.00000216,0.0
 0000611,-0.00000218,0.00021310,-0.00006858,0.00022572,-0.06885120,0.11
 554188,-0.14517823,0.00677149,-0.01005856,0.02757468,0.07987570,-0.175
 51580,0.12411013,-0.00050533,-0.00366652,0.00324707,-0.00257154,-0.001
 67003,-0.00031189,0.00007672,0.00028098,0.00078037,0.00022120,0.000185
 64,-0.00025494,0.00009943,-0.00020078,-0.00008774,-0.00066290,0.000705
 36,0.00022903,0.00046653,-0.00020359,-0.00004933,0.00065872,0.00037448
 ,0.00123043,0.00063948,0.00049412,0.00041366,0.00007945,-0.00006530,-0
 .00016843,0.00009991,-0.00013242,-0.00013624,-0.00052540,0.00003578,0.
 00025937,0.00052813,0.00032360,0.00043438,-0.00070435,0.00032089,-0.00
 033520,0.00028311,-0.00039613,-0.00015740,-0.00024978,-0.00004938,0.00
 001044,0.00003740,0.00007382,0.00005788,0.00002542,0.00000287,0.000058
 27,0.00000580,0.00006382,0.00000444,-0.00008080,-0.00073727,0.00004109
 ,0.00004299,0.00018459,-0.00060927,0.00009907,0.00014746,0.00019178,0.
 00014951,0.00024400,-0.00007438,-0.00007983,0.00006015,0.00001666,0.00
 005449,-0.00000619,-0.00000083,0.00024196,-0.00005799,-0.00020671,-0.0
 0014858,-0.00001872,0.00010765,0.00009063,-0.00003885,-0.00001719,-0.0
 0011661,0.00005512,0.00007423,-0.00022035,0.00007500,0.00010294,0.0000
 6071,0.00004567,-0.00003443,0.00066913,-0.00044125,-0.00033051,-0.0002
 5044,0.00034854,0.00030207,-0.00068634,0.00010259,0.00009324,0.0000333
 7,-0.00009663,-0.00019581,0.00052310,0.00013324,0.00048556,-0.00039315
 ,-0.00023551,-0.00023649,0.00029481,0.00055220,0.00006597,-0.00098826,
 0.00099012,-0.00035168,-0.00037248,0.00012171,-0.00016799,0.00007828,-
 0.00007092,-0.00014845,0.00006744,-0.00019234,0.00005396,0.00067866,0.
 00036261,-0.00019482,-0.00049624,-0.00019295,0.00007180,-0.00039471,-0
 .00025877,0.00018860,0.00010618,0.00010191,0.00009821,0.00019794,-0.00
 012911,-0.00007615,-0.00011585,0.00005016,0.00007369,-0.00017634,0.000
 06610,0.00000682,-0.00001239,0.00002690,0.00000254,-0.00001334,-0.0000
 0777,0.00000534,0.00007823,-0.00004627,-0.00011439,0.00000861,-0.00001
 237,0.00001330,0.00002347,-0.00002620,-0.00001219,0.00001837,-0.000023
 31,-0.00000118,-0.00003334,0.00000138,0.00000674,0.00003047,-0.0000101
 5,0.00003233,0.00004991,-0.00000365,0.00000842,-0.00024155,-0.00013817
 ,-0.00005937,-0.00007071,-0.00017880,0.00010544,-0.00009760,0.00000150
 ,0.00004939,0.00026339,-0.00005491,-0.00007604,-0.00018158,-0.00004432
 ,0.00002515,0.00057800,0.00036930,-0.00023843,-0.00007030,0.00001730,0
 .00002483,0.00031987,0.00002282,-0.00005476,-0.00004397,-0.00002736,-0
 .00000950,0.00002234,0.00001973,-0.00000813,0.00000926,0.00002261,-0.0
 0005883,0.00006930,-0.00003194,-0.00002021,0.00000727,-0.00002591,0.00
 077269,-0.15929190,-0.06720469,0.07489394,-0.03695908,-0.04238436,0.05
 582548,0.03484058,0.02832573,-0.02074270,0.16382641,0.00004986,-0.0057
 9571,0.00295013,-0.00170221,0.00051160,0.00001497,-0.00007525,0.000579
 20,0.00093789,0.00021072,0.00013968,-0.00036349,0.00014920,-0.00017430
 ,-0.00014827,-0.00124487,0.00059189,-0.00005475,0.00068847,-0.00027003
 ,-0.00043645,0.00192361,-0.00026756,0.00142525,-0.00032637,-0.00011524
 ,0.00010356,0.00008377,-0.00004941,-0.00008718,0.00011436,-0.00010958,
 -0.00013920,-0.00078037,-0.00060680,0.00096563,0.00103052,0.00044200,0
 .00060164,-0.00059603,-0.00066245,-0.00073290,0.00036281,-0.00080837,-
 0.00028942,0.00035050,-0.00003567,-0.00006130,0.00000094,-0.00009291,-
 0.00009104,-0.00004596,0.00000650,0.00005034,-0.00003937,0.00005101,0.
 00001415,-0.00023793,-0.00123662,0.00000885,0.00042153,0.00019391,-0.0
 0042306,-0.00000009,0.00011608,-0.00017500,0.00018458,0.00054675,-0.00
 018682,-0.00000153,0.00001476,0.00000432,0.00000291,-0.00000471,0.0000
 0157,-0.00001147,-0.00004040,0.00001636,-0.00000403,0.00006144,-0.0000
 1563,-0.00001870,-0.00001064,-0.00000850,0.00002467,0.00002135,0.00001
 664,0.00000668,0.00001653,-0.00000720,-0.00000396,-0.00000153,0.000001
 39,0.00007666,-0.00010625,-0.00008149,0.00000077,0.00009091,0.00007838
 ,-0.00010164,0.00003248,0.00006502,0.00009060,-0.00003251,-0.00000284,
 0.00001498,0.00010924,0.00000146,0.00002015,0.00002142,-0.00000069,0.0
 0006431,0.00069684,-0.00048079,-0.00110780,0.00158464,-0.00062536,-0.0
 0003723,-0.00000653,0.00003686,-0.00001475,-0.00007607,-0.00025886,0.0
 0024148,-0.00028593,0.00033637,0.00026757,-0.00000841,0.00014904,-0.00
 025103,0.00011752,-0.00014062,-0.00012101,-0.00000525,-0.00002771,0.00
 002767,-0.00000029,0.00003845,0.00009390,-0.00006777,0.00000955,-0.000
 03876,0.00003983,-0.00000073,-0.00008120,0.00007230,-0.00002339,-0.000
 00022,0.00000486,0.00000275,0.00000330,0.00000058,-0.00000117,-0.00001
 260,-0.00001527,-0.00001983,0.00000039,0.00000176,-0.00000227,0.000001
 99,-0.00000427,-0.00000188,0.00000182,-0.00000449,0.00000162,-0.000003
 92,0.00000265,-0.00000040,0.00000608,0.00000042,0.00000436,0.00000132,
 -0.00001876,0.00000685,-0.00023996,-0.00022394,-0.00010197,-0.00002718
 ,-0.00012119,0.00011702,-0.00000039,0.00000031,0.00001347,0.00002005,0
 .00001619,-0.00008316,0.00008712,0.00006385,-0.00001113,0.00056810,0.0
 0006082,-0.00014807,-0.00004036,0.00003480,0.00002401,-0.00019082,0.00
 005891,-0.00005886,-0.00000632,-0.00000247,-0.00000443,-0.00000281,-0.
 00001066,0.00000243,0.00003019,-0.00003083,-0.00001043,0.00003091,-0.0
 0006047,-0.00000193,-0.00003867,0.00028931,0.00036210,-0.05482963,-0.2
 9774271,0.16511775,-0.03622782,0.01218406,0.02626386,0.00743672,-0.070
 81246,0.06801419,0.08377106,0.36114208,0.00118625,0.00421488,-0.004986
 47,0.00040513,0.00097802,-0.00100221,0.00030052,-0.00021586,-0.0003257
 3,-0.00019842,-0.00001921,0.00021115,-0.00009770,0.00004982,0.00010508
 ,-0.00027069,-0.00039044,-0.00011522,0.00003661,-0.00009713,-0.0001513
 6,0.00056349,-0.00040824,-0.00073793,0.00000893,-0.00028136,0.00011298
 ,-0.00011326,0.00004873,0.00004721,0.00000983,0.00000033,0.00001334,-0
 .00003582,-0.00006534,-0.00073171,-0.00028949,-0.00033933,-0.00031920,
 0.00072460,-0.00010711,0.00043627,-0.00008362,0.00038769,0.00027956,-0
 .00002075,0.00005317,-0.00004852,-0.00000138,-0.00000938,0.00000772,0.
 00001285,0.00001220,0.00001438,0.00000671,-0.00004244,0.00000683,0.000
 39337,0.00038392,-0.00013048,-0.00010438,-0.00005782,0.00024094,-0.000
 02474,-0.00004003,0.00005222,-0.00005120,-0.00018622,-0.00011690,0.000
 02793,-0.00002429,-0.00000327,-0.00001872,0.00000397,-0.00000180,-0.00
 005659,0.00003287,0.00003828,0.00004474,-0.00002768,-0.00001395,-0.000
 03310,0.00001551,0.00000199,0.00004130,-0.00002216,-0.00001692,0.00005
 775,-0.00002452,-0.00001327,-0.00001454,-0.00001062,0.00000362,-0.0002
 1126,0.00014002,0.00009690,0.00007788,-0.00011237,-0.00008705,0.000192
 72,-0.00004038,-0.00005039,-0.00005880,0.00004280,0.00005359,-0.000147
 19,-0.00012767,-0.00013294,0.00008710,0.00006278,0.00007166,-0.0001612
 9,-0.00051198,0.00032570,0.00074050,-0.00141855,0.00049902,0.00011538,
 -0.00002936,0.00004651,-0.00001845,-0.00001938,0.00048283,-0.00057251,
 0.00050226,-0.00058061,-0.00053166,-0.00010792,-0.00019270,0.00037179,
 0.00001549,0.00016550,0.00021781,0.00009361,0.00001152,-0.00005168,-0.
 00003061,-0.00005487,-0.00011667,0.00006705,-0.00001379,0.00005954,-0.
 00002516,0.00000093,0.00010874,-0.00006049,0.00002620,0.00000492,-0.00
 001043,-0.00000093,0.00000290,0.00000213,-0.00000085,-0.00002289,0.000
 01670,0.00003069,-0.00000300,0.00000175,-0.00000256,-0.00000862,0.0000
 0910,0.00000318,-0.00000589,0.00001076,0.,0.00001136,-0.00000238,-0.00
 000247,-0.00001088,0.00000461,-0.00000941,-0.00001596,0.00000978,-0.00
 001189,0.00023440,0.00018107,0.00007997,0.00008750,0.00012901,-0.00010
 321,0.00003116,0.00000399,-0.00002374,-0.00007156,-0.00001133,0.000049
 48,0.00000532,-0.00006742,0.00002645,-0.00073375,-0.00024165,0.0002887
 4,0.00005742,-0.00004454,-0.00003049,0.00006322,-0.00005128,0.00004472
 ,0.00001856,0.00001111,0.00000480,-0.00000095,0.00000080,-0.00000003,-
 0.00003058,-0.00000233,0.00002293,-0.00003986,0.00004113,0.00000462,-0
 .00000880,-0.00044525,0.00041693,0.06694353,0.17551553,-0.23785110,0.0
 5167093,0.02807796,-0.01459986,-0.00576250,0.05705913,-0.00698178,-0.1
 1492358,-0.26245000,0.26512117\\-0.00000163,-0.00000453,-0.00000005,0.
 00000049,0.00000751,0.00000527,-0.00000132,0.00000324,0.00000417,-0.00
 000117,0.00000150,0.00000565,-0.00000173,0.00000370,0.00000514,-0.0000
 0015,-0.00000256,0.00000279,0.00000020,-0.00000115,0.00000211,0.000000
 97,0.00000187,-0.00000063,-0.00000031,-0.00000102,-0.00000011,-0.00000
 029,-0.00000379,0.00000074,-0.00000052,-0.00000129,0.00000426,-0.00000
 036,0.00000406,0.00000296,-0.00000203,0.00000469,0.00000354,-0.0000002
 5,0.00000556,0.00000269,-0.00000196,0.00000622,0.00000517,-0.00000208,
 -0.00000250,0.00000498,-0.00000091,-0.00000501,0.00000556,-0.00000050,
 -0.00000412,0.00000453,-0.00000136,-0.00000225,0.00000561,-0.00000204,
 -0.00000108,-0.00000132,0.00000197,-0.00000214,-0.00000228,0.00000016,
 -0.00000367,-0.00000132,0.00000055,-0.00000351,0.00000012,-0.00000056,
 -0.00000238,0.00000304,0.00000038,-0.00000311,0.00000291,-0.00000340,-
 0.00000495,0.00000249,0.00000220,-0.00000249,-0.00000073,0.00000032,-0
 .00000490,0.00000520,-0.00000272,-0.00000485,0.00000361,-0.00000047,0.
 00000199,-0.00000225,0.00000061,-0.00000060,0.00000407,-0.00000150,0.0
 0000552,-0.00000078,0.00000045,-0.00000276,0.00000478,-0.00000305,0.00
 000190,0.00000735,0.00000346,0.00000055,-0.00000315,-0.00000147,0.0000
 0111,-0.00000465,0.00000308,0.00000528,-0.00000101,-0.00000065,0.00000
 711,-0.00000167,-0.00000023,0.00000462,0.00000161,0.00000127,0.0000021
 2,0.00000268,-0.00000049,0.00000341,-0.00000775,0.00000368,-0.00000047
 ,-0.00000189,-0.00000374,-0.00000285,-0.00000665,0.00000366,-0.0000029
 8,-0.00000184,0.00000526,0.00000212,-0.00000528,0.00000099,-0.00000566
 ,-0.00000806,0.00000290,-0.00000479,-0.00000342,0.00000004,-0.00000549
 ,-0.00000556,0.00000020,-0.00000084,0.00000029,-0.00000138,-0.00000559
 ,0.00000643,-0.00000093,-0.00000668,0.00000320,-0.00000153,-0.00000380
 ,0.00000446,-0.00000160,-0.00000101,0.00000515,-0.00000081,-0.00000485
 ,0.00000277,-0.00000106,-0.00000208,0.00000315,0.00000027,0.00000184,0
 .00000271,0.00000053,0.00000272,-0.00000029,-0.00000042,-0.00000016,-0
 .00000092,-0.00000052,0.00000550,0.00000267,-0.00000030,0.00000677,-0.
 00000033,-0.00000133,0.00000585,0.00000079,-0.00000236,0.00000251,0.00
 000284,0.00000253,0.00000313,-0.00000619,0.00000077,-0.00000066,-0.000
 00626,0.00000033,0.00000124,-0.00000745,-0.00000063,0.00000045,-0.0000
 0326,0.00000164,-0.00000230,-0.00000846,0.00000284,-0.00000035,-0.0000
 0640,0.00000214,-0.00000515,-0.00000658,0.00000157,-0.00000615,-0.0000
 0672,0.00000182,0.00000717,-0.00000722,-0.00001272,-0.00000834,-0.0000
 0671,0.00001028,0.00000738,-0.00000866,0.00000255,0.00000539,-0.000001
 28,0.00000243,0.00001082,-0.00000037\\\@


 EXPERIENCE IS A WONDERFUL THING.  IT ENABLES
 YOU TO RECOGNIZE A MISTAKE WHEN YOU MAKE IT AGAIN.
           - BACK OF A SUGAR PACKET
 Job cpu time:       0 days 14 hours 20 minutes 36.7 seconds.
 File lengths (MBytes):  RWF=   4043 Int=      0 D2E=      0 Chk=     36 Scr=      1
 Normal termination of Gaussian 09 at Tue Mar 14 15:33:15 2023.
